/*--------------------------------*- C++ -*----------------------------------*\
  =========                 |
  \\      /  F ield         | OpenFOAM: The Open Source CFD Toolbox
   \\    /   O peration     | Website:  https://openfoam.org
    \\  /    A nd           | Version:  7
     \\/     M anipulation  |
\*---------------------------------------------------------------------------*/
FoamFile
{
    version     2.0;
    format      ascii;
    class       volScalarField;
    location    "2";
    object      p;
}
// * * * * * * * * * * * * * * * * * * * * * * * * * * * * * * * * * * * * * //

dimensions      [0 2 -2 0 0 0 0];

internalField   nonuniform List<scalar> 
13182
(
3.47177e-11
6.64715e-12
2.33305e-11
3.67201e-11
9.62211e-12
3.21588e-11
3.24064e-11
3.5534e-11
3.75327e-11
1.326e-11
1.32885e-11
1.69878e-11
3.3088e-11
3.26851e-11
3.19742e-11
3.3096e-11
3.72043e-11
3.72339e-11
3.08641e-11
3.12684e-11
3.09663e-11
3.4563e-11
3.34119e-11
2.8195e-11
2.76765e-11
2.80918e-11
3.59769e-11
2.78449e-11
1.74666e-11
3.75986e-11
3.7602e-11
3.74902e-11
3.37307e-11
1.32066e-11
1.18838e-11
3.19917e-11
3.49049e-11
1.88192e-11
2.03813e-11
3.48393e-11
6.07175e-12
6.76945e-12
2.50177e-11
2.88811e-12
2.66203e-11
1.04314e-11
3.63111e-11
2.30759e-11
2.18586e-11
3.5711e-11
2.66624e-11
2.70975e-11
1.39236e-11
3.49436e-11
3.30264e-11
2.89938e-11
1.79599e-11
3.55827e-11
3.31207e-11
3.65311e-11
3.4886e-11
3.49494e-11
3.57669e-11
2.8973e-11
2.61174e-11
2.58549e-11
3.2589e-11
2.75526e-11
1.02083e-11
2.96114e-11
2.94394e-12
3.46234e-11
3.4717e-11
2.78899e-11
5.9053e-12
3.55028e-11
3.74827e-11
3.65403e-11
3.49162e-11
3.48789e-11
3.79108e-11
1.40029e-11
3.09222e-11
3.12743e-11
5.65513e-12
4.47207e-12
5.30558e-12
1.43291e-11
2.82362e-11
2.89724e-11
1.62901e-11
3.562e-11
1.52736e-11
1.51268e-11
3.48582e-11
3.6912e-11
1.61434e-11
3.41878e-11
3.67706e-11
3.14639e-11
3.09346e-11
2.07748e-11
2.53779e-11
3.2568e-11
3.44434e-11
2.57164e-11
6.8508e-12
5.52092e-12
3.54868e-11
1.98424e-11
3.63787e-11
9.959e-12
9.38419e-12
3.24447e-11
2.56675e-11
1.52044e-11
3.50135e-11
4.2275e-12
2.94761e-11
2.95155e-11
2.90851e-11
1.00221e-11
3.70648e-11
3.12528e-11
2.28852e-11
2.1837e-11
3.12204e-11
3.76828e-11
3.14355e-11
1.86503e-11
1.31925e-12
1.65959e-12
3.62982e-11
1.25933e-11
3.24846e-11
3.75986e-11
3.73807e-11
2.88735e-11
3.15936e-11
3.4641e-11
1.51759e-11
4.37026e-12
4.98782e-12
2.57779e-11
2.52276e-11
3.65688e-11
3.41825e-11
9.1931e-12
3.68269e-11
2.15675e-11
2.72919e-12
2.61981e-11
2.63159e-11
1.89018e-11
2.7998e-11
2.81965e-11
4.18197e-12
9.5777e-12
8.08306e-12
2.75126e-11
2.80287e-11
1.82913e-11
1.90205e-11
3.46932e-11
3.46525e-11
2.34489e-11
3.63115e-11
2.9506e-11
2.36732e-11
8.57133e-12
1.29988e-11
3.32379e-11
3.31805e-11
1.84851e-12
2.19122e-11
3.53893e-11
7.94079e-12
1.60052e-11
3.54364e-11
3.12903e-11
2.77034e-11
1.97869e-11
3.5585e-11
2.96246e-11
1.43823e-11
2.08705e-11
2.22131e-11
3.52174e-11
2.75645e-11
2.55818e-11
1.9775e-11
3.57744e-11
2.26361e-11
3.61859e-12
3.54585e-11
2.51902e-11
1.90918e-11
3.11811e-11
2.72568e-11
2.8492e-11
3.51251e-11
3.51732e-11
3.79652e-12
3.56687e-11
1.53993e-11
4.58566e-12
1.42645e-11
1.2666e-12
3.50593e-11
1.37164e-11
2.36776e-11
9.57099e-13
3.59702e-11
3.28545e-11
1.99357e-11
3.04689e-11
2.7046e-11
3.50429e-11
2.35532e-11
2.81184e-12
2.63134e-11
2.72452e-11
2.47596e-12
3.183e-11
1.442e-11
3.49468e-11
3.50033e-11
3.72217e-11
3.79152e-11
3.45346e-11
3.58658e-11
3.45895e-11
3.44565e-11
3.28728e-11
3.52927e-11
3.60775e-11
2.48527e-11
3.59531e-11
3.58694e-11
3.40901e-11
3.84067e-12
4.1169e-12
3.50659e-11
3.34471e-11
3.35492e-11
3.24129e-11
2.95676e-11
2.93839e-11
3.66474e-11
2.94076e-11
3.3381e-11
1.75219e-11
2.26261e-11
2.31662e-11
4.97915e-12
3.56283e-11
1.78587e-11
2.13989e-12
2.65093e-12
1.03098e-11
2.17714e-11
3.75633e-11
3.5954e-11
3.83597e-11
2.9033e-11
2.57839e-11
1.51873e-11
3.64951e-11
2.8986e-11
3.71544e-11
3.64939e-11
3.62993e-11
3.47621e-11
1.82745e-11
3.58688e-11
1.93772e-11
3.55081e-11
3.53985e-11
2.98422e-11
5.1078e-12
3.77413e-11
2.12222e-11
2.08148e-11
3.2553e-11
3.41941e-11
1.98873e-11
2.03222e-11
3.78509e-11
1.03703e-11
3.50599e-11
3.65497e-11
1.70373e-11
9.00406e-12
2.74671e-11
3.73664e-11
3.51722e-11
3.51578e-11
3.51321e-11
3.77283e-11
3.76398e-11
2.54702e-11
2.93114e-11
3.44967e-11
3.43403e-11
1.43816e-11
1.00982e-11
2.99545e-11
3.08518e-11
3.6714e-11
2.55741e-11
3.40863e-11
3.73067e-11
2.22052e-11
3.59557e-11
3.55049e-11
3.71715e-11
3.70566e-11
3.30232e-11
3.76922e-11
1.59599e-11
1.41263e-11
1.04109e-11
3.47482e-11
3.47317e-11
3.3081e-11
3.63653e-11
2.70042e-11
3.14522e-11
2.64073e-11
2.2157e-11
3.12716e-11
3.15592e-11
1.73767e-11
1.74669e-11
1.68245e-11
2.87896e-11
2.92774e-11
3.07354e-11
3.72973e-11
1.57017e-11
4.39618e-12
3.57445e-11
3.80379e-11
1.06742e-11
1.112e-11
3.64014e-11
2.8856e-11
2.93951e-11
3.28028e-11
2.76886e-11
2.82311e-11
3.62862e-11
8.85899e-12
3.46372e-11
3.46171e-11
3.49422e-11
3.46676e-11
3.47916e-11
3.58284e-11
3.37566e-11
1.50675e-11
3.63273e-11
8.49857e-12
3.46108e-11
1.0833e-11
1.07534e-11
3.73664e-11
3.3827e-11
3.39977e-11
2.41991e-11
3.50805e-11
3.51838e-11
1.7451e-11
2.26276e-11
3.38824e-11
3.48912e-11
2.1164e-11
1.22015e-11
3.37992e-12
3.18572e-11
2.91039e-11
1.86766e-11
3.55216e-11
3.30115e-11
2.60456e-11
2.68309e-11
2.50003e-11
3.56953e-11
9.88494e-12
3.18361e-11
2.79674e-11
3.78484e-11
3.78859e-11
3.10509e-11
3.0764e-11
3.64712e-11
3.50034e-11
1.54552e-11
2.41965e-11
3.59393e-11
1.77667e-11
1.67211e-11
3.00108e-11
3.50768e-11
3.60472e-11
1.78967e-11
2.82608e-11
3.75328e-11
3.51158e-11
2.59682e-11
3.18483e-11
3.19853e-11
1.87864e-11
2.5902e-11
3.80878e-11
1.0383e-11
3.49868e-11
1.55244e-11
2.43495e-11
3.35846e-11
2.34208e-11
3.43837e-11
3.57291e-11
3.58929e-11
3.81698e-11
1.2227e-11
3.526e-11
2.67693e-11
3.39661e-11
3.47275e-11
3.89626e-12
2.79892e-11
2.94873e-11
3.64033e-11
3.42791e-11
1.34248e-11
3.34286e-11
2.21184e-11
1.378e-11
3.23902e-11
6.91989e-12
2.17244e-11
2.44462e-11
3.02374e-11
2.63005e-11
3.52487e-11
8.51275e-12
3.48925e-11
1.52591e-11
3.79079e-11
3.65404e-11
2.07864e-11
2.03839e-11
3.49526e-11
1.00464e-11
2.86881e-11
3.83395e-11
3.55301e-11
3.68234e-11
3.52212e-11
3.76193e-11
3.42144e-11
1.04153e-11
3.49062e-11
3.69443e-11
3.82196e-11
2.28552e-11
2.37288e-11
3.70266e-11
3.34806e-11
3.35306e-11
1.15707e-11
3.7927e-11
2.75983e-11
1.16933e-11
2.11735e-11
3.68845e-11
1.78078e-11
3.6818e-11
3.74017e-11
3.73084e-11
3.67391e-11
2.48366e-11
3.628e-11
5.06292e-12
1.90054e-11
3.09328e-11
1.5984e-11
1.11629e-11
5.53709e-12
3.6006e-11
2.56547e-11
3.51612e-11
9.5774e-12
3.84605e-11
1.93556e-11
2.74699e-11
5.81236e-12
3.2848e-11
1.2176e-11
3.57802e-11
3.59962e-11
3.51925e-11
1.15562e-11
1.91732e-11
3.23417e-11
3.64331e-11
3.63051e-11
2.38782e-11
1.95876e-11
2.02527e-11
1.94404e-11
3.2666e-11
2.93894e-11
2.73838e-11
3.39009e-11
2.06955e-11
3.68151e-11
3.21353e-11
9.08669e-12
3.24898e-11
3.44941e-11
3.45287e-11
2.21519e-11
2.44206e-11
2.51477e-11
3.6637e-11
2.74472e-11
3.76449e-11
2.71987e-11
2.74023e-11
3.60641e-11
3.35231e-11
3.36798e-11
3.13946e-12
3.25443e-11
3.23283e-11
1.74514e-11
2.86147e-11
2.7177e-11
3.05663e-11
1.69576e-11
3.77895e-11
2.02237e-11
3.3629e-11
2.61333e-11
2.53832e-11
3.44205e-11
2.06219e-11
3.60673e-11
3.76511e-11
3.39596e-11
3.40894e-11
3.44185e-11
3.43274e-11
3.51067e-11
3.81518e-11
3.53002e-11
2.88653e-11
3.61493e-11
9.53735e-12
3.62358e-11
3.50671e-11
2.68066e-11
3.62811e-11
3.38756e-11
2.70092e-11
7.56882e-12
1.98162e-11
3.17717e-11
3.07848e-11
1.84844e-11
1.79688e-11
2.80517e-11
3.50085e-11
3.49934e-11
3.47812e-11
3.31678e-11
3.47312e-11
2.22909e-11
3.08028e-11
1.58149e-11
3.58769e-11
3.38052e-11
3.34748e-11
3.10674e-11
3.74806e-11
3.46447e-11
3.46692e-11
2.22788e-11
2.23427e-11
6.27062e-12
3.49051e-11
3.0687e-11
3.29328e-11
1.9498e-11
2.53886e-11
3.49155e-11
3.83281e-11
3.80404e-11
3.48251e-11
3.49662e-11
3.40795e-11
3.38692e-11
1.28059e-11
2.71808e-11
1.27049e-11
2.59477e-11
3.51239e-11
3.5686e-11
3.77146e-11
1.46421e-11
3.47656e-11
1.50319e-11
2.40479e-11
7.30809e-12
1.8274e-11
2.89777e-11
1.37985e-11
2.63927e-11
3.53886e-11
1.5559e-11
3.42325e-11
3.72943e-11
1.4306e-11
1.56018e-11
3.7815e-11
3.31616e-11
1.40815e-11
3.53897e-11
3.78907e-11
3.79063e-11
3.00003e-11
2.84652e-11
1.36388e-11
1.94606e-11
3.53223e-11
3.42574e-11
3.65854e-11
3.29364e-11
3.58753e-11
1.99655e-11
2.79842e-11
3.5022e-11
3.75226e-11
9.51168e-12
1.91146e-11
3.5077e-11
2.03443e-11
1.25585e-11
3.71831e-11
3.71468e-11
1.87917e-11
3.50224e-11
3.68206e-11
1.56727e-11
3.78575e-11
2.31005e-11
1.62342e-11
1.50863e-11
3.59534e-11
2.26248e-11
1.53442e-11
3.05393e-11
3.12144e-11
3.08702e-11
3.46327e-11
3.46767e-11
3.76732e-11
2.59599e-11
3.8608e-11
3.30473e-11
3.75581e-11
3.08743e-11
3.67999e-11
1.13625e-11
3.78511e-11
3.50902e-11
1.48235e-11
3.65758e-11
2.65875e-11
3.70258e-11
3.70317e-11
1.71603e-11
3.75609e-11
1.55432e-11
1.65429e-11
1.60002e-11
1.60174e-11
3.60357e-11
3.30527e-11
3.32636e-11
7.69703e-12
1.81724e-11
3.49032e-11
3.49171e-11
3.41468e-11
3.13007e-11
2.77355e-11
1.42524e-11
3.512e-11
3.50038e-11
3.51477e-11
3.50065e-11
8.34175e-12
2.55055e-11
3.61561e-11
3.58857e-11
6.45011e-12
2.68829e-11
3.51727e-11
3.6044e-11
3.46769e-11
3.44216e-11
1.32106e-11
1.74606e-11
3.6069e-11
3.61526e-11
3.57974e-11
3.32271e-12
9.7345e-12
1.94383e-11
3.50602e-11
3.1142e-11
3.77342e-11
3.81023e-11
8.24982e-12
7.87309e-12
2.29171e-11
3.85138e-11
3.22916e-11
3.05696e-11
2.84559e-11
3.40634e-11
3.14738e-11
1.94625e-11
3.5389e-11
3.49235e-11
3.08006e-11
2.62865e-11
2.66595e-11
3.54241e-11
2.70002e-11
2.70967e-11
3.81878e-11
1.69534e-11
2.89933e-11
3.03546e-11
3.18567e-11
2.78264e-11
3.74247e-11
1.47693e-11
3.03612e-11
3.47707e-11
8.61174e-12
3.48919e-11
2.63864e-11
3.10503e-11
3.73821e-11
1.13632e-11
3.49885e-11
3.73259e-11
1.19299e-11
2.21654e-11
3.60059e-11
3.75559e-11
2.8577e-11
3.19596e-11
1.72706e-11
3.56992e-11
6.209e-12
5.37734e-12
3.50311e-11
3.21026e-11
3.69337e-11
3.4862e-11
1.47165e-11
2.73984e-11
3.67149e-11
3.60398e-11
2.74071e-11
2.00297e-11
3.67536e-11
2.84018e-11
2.85504e-12
2.43122e-12
3.77921e-11
3.1685e-11
3.19123e-11
2.33702e-11
2.58824e-11
7.242e-12
3.45638e-11
1.65697e-11
2.8769e-11
1.46379e-11
3.54738e-11
3.35188e-11
3.49507e-11
1.49612e-11
1.82034e-11
2.65141e-11
1.97127e-11
3.6126e-11
8.27443e-12
3.62636e-11
2.57788e-11
3.49133e-11
3.50177e-11
3.05161e-11
2.84083e-11
5.0892e-12
1.46753e-11
1.74732e-11
1.8372e-11
9.90442e-12
1.92804e-11
3.65652e-11
3.50428e-11
2.73516e-11
2.75558e-11
3.79571e-11
2.29644e-11
3.05896e-11
3.02511e-11
3.49695e-11
1.4161e-11
1.13346e-11
3.28811e-11
3.06321e-11
3.4996e-11
3.17191e-11
3.57122e-11
3.60141e-11
2.95617e-11
3.01764e-11
1.11387e-11
1.12224e-11
2.05805e-11
2.8396e-11
3.76514e-11
1.89297e-11
3.00476e-11
3.70691e-11
3.3018e-11
3.00832e-11
3.01533e-11
1.62607e-11
3.05809e-11
2.38489e-11
3.54165e-11
3.4092e-11
3.13703e-11
3.6149e-11
3.26363e-11
2.40544e-11
1.39671e-12
3.80682e-11
3.49849e-11
4.02931e-12
3.17555e-11
1.09394e-11
3.76115e-11
8.66624e-12
2.42098e-11
3.5706e-11
4.46294e-12
3.09414e-11
3.40534e-11
3.73163e-11
3.57428e-11
3.56968e-11
2.6505e-11
3.77843e-11
2.51759e-11
3.48576e-11
3.46259e-11
3.44381e-12
3.58078e-11
2.58099e-11
3.51633e-11
3.63026e-11
1.02554e-11
1.98768e-11
2.89544e-11
3.45906e-11
3.49002e-11
3.67658e-11
2.78688e-11
2.76453e-11
3.36708e-11
3.12382e-12
3.53786e-11
3.57835e-11
1.82645e-11
3.50189e-11
1.66583e-11
2.65946e-11
2.10883e-12
3.41244e-11
1.14776e-11
3.20286e-11
1.80218e-11
3.75503e-11
3.50177e-11
3.50586e-11
1.864e-11
1.95983e-11
3.42455e-11
9.06533e-12
1.1278e-11
1.3317e-11
1.30408e-11
2.30538e-11
3.39749e-11
2.40867e-11
2.00488e-11
2.07849e-11
1.49133e-11
3.537e-11
3.53557e-11
2.15157e-11
3.47176e-11
3.63241e-11
3.81177e-12
3.74811e-11
3.28885e-11
3.20204e-11
3.28994e-11
3.60476e-11
3.55907e-11
3.47664e-11
3.47666e-11
1.86271e-11
3.49584e-11
3.31326e-11
3.36523e-11
3.07501e-11
3.03021e-11
3.03358e-11
1.35845e-11
2.72792e-11
2.74704e-11
3.59492e-11
1.37659e-11
2.44843e-11
2.71948e-11
1.78754e-11
1.72106e-11
2.571e-11
1.15461e-11
3.49634e-11
2.12879e-11
3.12524e-11
3.11345e-11
1.94139e-11
3.28544e-11
1.18518e-11
2.60166e-11
3.487e-11
1.41232e-11
3.76825e-11
1.96003e-11
1.82824e-11
2.50755e-11
3.79152e-11
2.61916e-11
3.74016e-11
3.72853e-11
3.22019e-11
2.62225e-11
3.45582e-11
3.5851e-11
3.11412e-11
3.72795e-12
1.53406e-11
3.0682e-11
3.59794e-11
3.42377e-11
3.3877e-11
3.21743e-11
9.78589e-12
3.50141e-11
2.77882e-11
3.6435e-11
1.71079e-11
3.61398e-11
2.63253e-11
3.00415e-11
3.06056e-11
3.06446e-11
3.21741e-11
3.1641e-11
3.14993e-11
3.31031e-11
1.08608e-11
3.2308e-11
2.69751e-12
3.56601e-11
3.58335e-11
3.58868e-11
2.86326e-11
3.30085e-11
2.73401e-11
3.70965e-11
3.37758e-11
3.32513e-11
3.21627e-11
8.80864e-12
3.50198e-11
1.13515e-11
3.62416e-11
3.78002e-11
3.00293e-11
3.01081e-11
2.05651e-11
1.66913e-12
2.9979e-11
1.47744e-11
3.50901e-11
3.5125e-11
3.51584e-11
3.49419e-11
2.91646e-11
2.9242e-11
3.76075e-11
3.4948e-11
3.45398e-11
3.86141e-11
3.51738e-11
3.77374e-11
2.32585e-11
2.44392e-11
2.53812e-12
2.06723e-11
7.83627e-12
3.38116e-11
8.60265e-12
3.72377e-11
1.95542e-11
3.76787e-11
3.77266e-11
3.59002e-11
3.44468e-11
9.34249e-12
3.0048e-11
2.81028e-11
3.48104e-11
2.47241e-11
3.4815e-11
1.87392e-11
2.08321e-11
2.72155e-11
5.56605e-12
3.59576e-11
1.03514e-11
1.02812e-11
2.91116e-11
3.61296e-11
3.59205e-11
1.72779e-11
2.6076e-11
3.31596e-11
2.43645e-11
2.96116e-11
1.07289e-11
6.20482e-12
3.48552e-11
2.42864e-11
2.9105e-11
2.26991e-11
2.05817e-11
2.02121e-11
3.00001e-11
3.80876e-11
3.77464e-11
2.99059e-11
1.35281e-11
1.66905e-11
3.48233e-11
3.48766e-11
3.48804e-11
1.07594e-11
1.09846e-11
3.73268e-11
3.73166e-11
3.77154e-11
2.5203e-11
2.5519e-11
3.00414e-11
9.16375e-12
1.7352e-11
3.52509e-11
1.72684e-11
1.7307e-11
3.5197e-11
3.04987e-11
2.66088e-11
2.66676e-11
3.48178e-11
3.10734e-11
3.33154e-11
8.84391e-12
1.52844e-11
2.18851e-11
2.14568e-11
3.51838e-11
1.92387e-11
3.50769e-11
2.78186e-11
2.66537e-11
3.28599e-11
4.62183e-12
2.92167e-11
1.55996e-11
3.17235e-11
3.50519e-11
2.7251e-12
2.81705e-12
3.49094e-11
7.42766e-12
3.48887e-11
5.04942e-12
3.01402e-11
3.3623e-11
3.7614e-11
3.5957e-11
2.25852e-11
3.21025e-11
2.03281e-11
3.41887e-11
3.33876e-11
3.36977e-11
2.32477e-11
2.26232e-11
3.62909e-11
6.49818e-12
1.45866e-11
3.61129e-11
3.76285e-11
3.77334e-11
3.49528e-11
3.028e-12
2.01438e-11
2.0446e-11
9.08187e-12
3.44464e-11
2.79316e-11
3.08495e-11
3.22027e-11
1.12182e-11
3.22684e-11
1.92318e-11
2.02872e-11
3.82135e-11
1.67386e-11
3.39505e-11
3.01139e-11
1.86996e-11
1.58098e-11
3.59469e-11
1.14413e-11
9.59091e-12
3.55284e-11
2.82985e-11
3.57466e-11
3.37211e-11
3.76521e-12
2.62287e-11
2.05104e-11
3.54855e-11
3.45256e-11
3.46139e-11
3.4117e-11
3.64419e-11
2.10491e-11
3.38149e-11
1.61889e-11
2.67736e-11
3.41055e-11
3.04098e-11
1.84947e-11
1.58183e-12
3.02938e-11
3.57875e-11
3.86829e-11
2.94884e-11
2.98016e-11
7.99286e-12
3.38998e-11
2.95522e-11
1.89234e-11
2.68615e-11
1.28573e-11
3.26038e-11
3.4107e-11
3.41709e-11
3.02184e-11
2.59409e-11
3.48288e-11
3.40237e-11
2.12181e-11
1.79315e-11
1.17671e-11
1.04108e-11
2.80341e-11
3.43012e-11
3.29617e-11
1.97954e-11
2.92656e-11
3.44287e-11
1.62867e-11
3.59433e-11
1.63181e-11
4.55361e-12
1.63691e-11
3.66217e-11
1.42384e-11
3.25645e-11
2.84245e-11
2.51783e-11
3.21762e-11
2.85551e-11
2.82467e-11
2.50847e-11
2.58707e-11
2.88518e-11
4.38836e-12
3.61026e-11
3.49249e-11
1.45063e-11
3.55937e-11
1.4546e-11
1.5899e-11
2.28324e-11
3.82792e-11
3.45764e-11
8.31249e-12
6.97234e-12
2.64504e-11
3.31452e-11
3.38271e-11
3.13618e-11
2.28149e-11
9.93238e-12
3.79343e-11
3.78807e-11
2.28685e-12
2.83398e-11
9.25773e-12
2.90882e-11
3.61098e-11
3.60286e-11
3.45388e-11
3.32158e-11
3.62379e-11
2.33842e-11
3.30456e-11
3.1176e-11
3.11865e-11
1.371e-11
2.62634e-11
3.12554e-11
3.52947e-11
2.23512e-11
2.66455e-11
2.67695e-11
2.05442e-11
2.29917e-11
2.26361e-11
1.55317e-11
3.65654e-11
3.73307e-11
3.07813e-11
2.96625e-11
2.74006e-11
2.70628e-11
2.18311e-11
2.43848e-11
3.49208e-11
3.55851e-11
3.24358e-11
2.98388e-11
3.02284e-11
2.29248e-11
3.67281e-11
3.66652e-11
3.49516e-11
2.18005e-11
2.986e-11
3.01396e-11
3.00048e-11
3.08254e-11
6.94775e-12
3.60888e-11
3.53059e-11
6.21003e-12
6.26261e-12
3.19026e-11
3.72776e-11
3.72411e-11
2.03117e-11
3.65414e-11
3.17367e-11
9.35168e-12
3.11085e-11
3.21121e-11
3.73792e-11
3.74272e-11
3.70825e-11
3.61855e-11
1.93234e-11
3.48679e-11
1.90061e-11
1.92408e-11
3.24994e-11
2.66212e-11
3.63084e-11
2.05013e-11
3.04429e-11
3.02035e-11
9.52505e-12
1.02252e-11
2.03893e-11
4.76344e-12
2.91749e-11
5.1081e-12
3.09264e-11
3.49057e-11
1.12644e-11
2.53748e-11
2.52644e-11
3.53661e-11
2.194e-11
3.39613e-11
3.63882e-11
3.86553e-12
3.66909e-11
3.48215e-11
3.79838e-11
3.30738e-11
3.28942e-11
2.31394e-11
3.50525e-11
3.82362e-11
2.43893e-11
3.49272e-11
3.49261e-11
1.9023e-11
1.96645e-11
3.54788e-11
2.06992e-11
3.67713e-11
3.50246e-11
3.51973e-11
3.5274e-11
9.44456e-12
3.48305e-11
3.65253e-11
4.28405e-12
9.33726e-12
2.50683e-11
3.54563e-11
2.67001e-11
3.3206e-11
3.11781e-11
2.73168e-11
3.31092e-11
3.19945e-11
3.67216e-11
3.56484e-11
3.30751e-11
3.66129e-11
3.83953e-11
3.76397e-11
1.9699e-11
3.50458e-11
3.51681e-11
3.52501e-11
2.31714e-11
2.39055e-11
3.52555e-11
2.93131e-11
3.48261e-11
3.48407e-11
3.21155e-11
3.82251e-11
1.60618e-11
2.31342e-11
3.60029e-11
3.16112e-11
3.18895e-11
1.93476e-11
2.68077e-11
3.02508e-11
3.64422e-11
1.38699e-11
3.1773e-11
3.58465e-11
3.76057e-11
3.76742e-11
3.44439e-11
3.7929e-11
3.50914e-11
1.83113e-11
3.68918e-11
3.4674e-11
3.50828e-11
2.66116e-11
3.73957e-11
2.25326e-11
2.04868e-11
3.49611e-11
3.49621e-11
3.22922e-11
3.64364e-12
3.18687e-11
2.37453e-11
2.69415e-11
2.92021e-11
2.93614e-11
2.93458e-11
2.24648e-11
3.04203e-11
3.7772e-11
3.4988e-11
2.69185e-11
3.26453e-11
2.44749e-11
2.32373e-11
3.61102e-11
2.80011e-11
2.74309e-11
2.6876e-11
2.26793e-11
3.49019e-11
2.99882e-11
3.45784e-11
3.79355e-11
2.56015e-11
3.48119e-11
3.74966e-11
3.75302e-11
7.73031e-12
2.63696e-11
2.62405e-11
4.11882e-12
2.24643e-11
1.51308e-11
3.43561e-11
3.48034e-11
3.58655e-11
2.89971e-11
1.13057e-11
1.17026e-11
3.63454e-11
2.8427e-11
3.77208e-11
1.42604e-11
3.77396e-11
3.77156e-11
3.68253e-11
3.19806e-11
2.10807e-11
5.93404e-12
1.21716e-11
2.48766e-11
2.54094e-11
3.50023e-11
9.47068e-12
9.64465e-12
8.81461e-12
3.62899e-11
3.62857e-11
3.44632e-11
2.93615e-11
2.47764e-11
2.49692e-11
2.20776e-11
1.66798e-11
2.47469e-11
1.53954e-11
3.18279e-11
3.47501e-11
3.33249e-11
3.32294e-11
3.48125e-11
1.5446e-11
2.49645e-11
3.39993e-11
2.09587e-11
1.66253e-11
1.95032e-11
1.0195e-11
3.25957e-11
3.29357e-11
3.61585e-11
1.9701e-11
2.64964e-11
3.5606e-11
3.55894e-11
2.47843e-11
2.37308e-11
9.19739e-12
3.49368e-11
2.095e-11
4.51071e-12
3.16347e-11
1.96201e-11
1.15396e-11
5.41989e-12
3.42366e-11
3.41862e-11
1.34642e-11
3.4965e-11
3.86538e-12
3.77523e-11
3.50653e-11
1.98666e-11
3.53433e-11
3.51166e-11
2.90636e-11
3.64717e-11
1.48851e-11
1.82292e-11
2.94374e-11
2.66663e-11
3.76632e-11
3.5156e-11
2.93823e-11
8.39366e-12
1.19275e-11
3.59688e-11
3.59632e-11
3.57326e-11
3.86868e-11
1.65598e-11
3.49299e-11
1.55664e-11
1.54284e-11
3.44929e-11
3.50614e-11
3.60654e-11
3.76608e-11
1.27842e-11
1.43132e-11
6.43298e-12
2.68319e-11
2.673e-11
3.02458e-11
3.2201e-11
2.99288e-11
3.83597e-11
1.18122e-11
3.47703e-11
2.96752e-11
3.82237e-11
8.91583e-12
3.44487e-11
2.34086e-11
1.708e-11
1.91023e-11
6.02294e-12
3.04222e-11
3.15344e-11
8.986e-12
1.00219e-11
5.60945e-12
8.35198e-12
3.45669e-11
1.73353e-11
1.25973e-11
1.33605e-11
3.59241e-11
9.27803e-12
3.20027e-11
3.73649e-11
3.31409e-12
3.47913e-11
2.53447e-11
8.69217e-12
2.82208e-11
2.01749e-11
3.07927e-11
2.86595e-11
9.86862e-12
3.53703e-11
3.46489e-11
3.63146e-11
3.36774e-11
3.59981e-11
3.8656e-11
8.22471e-12
2.92143e-11
3.6117e-11
1.96916e-11
1.87905e-11
3.48867e-11
3.55697e-11
3.32949e-11
2.46558e-11
3.51468e-11
3.50873e-11
3.50902e-11
3.79201e-11
3.50832e-11
9.49695e-12
1.02275e-11
2.90494e-11
3.50038e-11
3.49349e-11
3.49537e-11
3.673e-11
3.67374e-11
2.92447e-11
3.57098e-11
3.21141e-11
3.22973e-11
3.26653e-11
3.4217e-11
7.86802e-12
3.80293e-11
3.47055e-11
1.01159e-11
3.49665e-11
1.89553e-11
3.48459e-11
1.50584e-11
3.74179e-11
3.70832e-11
3.58852e-11
2.00632e-11
1.8919e-11
3.59506e-11
3.79293e-11
3.56948e-11
3.557e-11
5.64289e-12
2.0654e-11
3.26427e-11
3.23353e-11
3.0322e-11
2.95185e-11
3.49908e-11
3.80864e-11
3.21623e-11
3.58747e-11
2.97233e-11
3.67457e-11
3.23319e-11
3.2248e-11
3.47945e-11
2.79285e-11
3.40437e-11
2.63587e-11
3.44528e-11
6.66723e-12
1.55968e-11
3.4984e-11
9.91444e-12
2.46989e-11
2.19845e-11
7.27977e-12
3.44076e-11
2.9073e-11
3.51511e-11
3.46428e-11
2.27173e-11
2.0794e-12
3.4211e-11
3.63161e-11
2.08053e-11
1.09271e-11
1.77542e-11
1.73893e-11
1.9202e-11
2.58307e-11
3.45991e-11
3.49779e-11
2.88173e-11
1.99848e-11
3.38189e-11
3.55327e-11
3.51348e-11
3.14615e-11
3.45352e-11
2.96291e-11
2.64102e-12
3.46315e-11
2.36736e-11
2.27603e-11
1.58007e-11
2.25783e-11
3.85507e-11
3.8567e-11
3.13517e-11
5.37848e-12
2.22769e-11
3.65274e-11
1.00129e-11
3.47832e-11
3.58238e-11
1.49957e-11
1.56963e-11
6.02282e-12
1.57815e-11
3.74262e-11
3.59349e-11
3.11216e-11
3.77422e-11
3.47323e-11
2.87232e-11
3.7947e-11
3.58232e-11
3.24146e-11
3.57976e-11
1.89471e-11
3.55083e-11
1.34934e-11
1.37835e-11
1.98489e-11
2.97934e-11
3.53914e-11
3.41082e-11
3.33732e-11
9.26975e-12
3.73138e-11
3.5154e-11
2.74621e-11
2.79154e-11
2.48046e-11
2.41347e-11
3.23523e-11
3.26302e-11
3.04859e-11
3.61588e-11
1.12321e-11
3.38462e-11
5.4435e-12
2.8928e-11
3.38757e-11
8.58694e-12
3.62809e-11
3.63395e-11
3.56563e-11
3.50347e-11
3.50337e-11
3.50312e-11
3.29077e-11
3.86642e-11
3.20237e-11
2.77142e-11
3.70715e-11
3.12387e-11
3.49718e-11
1.82739e-11
1.96457e-11
1.93909e-11
3.17322e-11
3.83847e-11
3.84188e-11
2.10467e-11
2.8497e-11
3.60988e-11
3.23424e-11
3.45291e-11
9.51926e-12
1.55314e-11
1.37765e-11
1.36612e-11
3.8282e-11
3.05168e-11
3.15105e-11
2.46846e-11
3.44958e-11
3.61826e-11
3.62464e-11
3.51297e-11
1.05266e-11
1.02886e-11
2.10667e-11
1.72162e-11
3.62396e-11
3.66553e-11
3.05691e-11
3.52628e-12
3.68726e-11
1.65505e-11
2.45163e-11
1.76487e-12
2.42301e-11
2.32408e-11
3.19403e-11
1.2439e-11
3.29237e-11
3.26788e-11
3.30722e-11
3.15193e-11
2.83016e-11
3.47575e-11
3.74345e-11
1.8032e-11
3.76843e-11
3.8189e-11
1.41123e-11
3.51519e-11
1.95168e-11
3.08141e-11
3.05773e-11
3.63065e-11
3.64216e-11
2.52007e-11
3.42268e-11
3.43601e-11
3.45567e-11
1.51379e-11
2.09478e-11
2.18069e-11
3.48265e-11
8.62166e-12
3.42295e-11
2.16631e-11
1.94048e-11
3.31999e-11
3.14796e-11
3.49944e-11
2.75398e-12
3.49351e-11
3.49851e-11
2.80517e-11
1.03412e-11
3.73689e-11
3.63722e-11
2.88625e-11
3.80038e-11
2.89253e-11
3.47843e-11
2.63966e-11
3.62339e-11
2.0062e-11
1.3101e-11
1.40264e-11
3.49471e-11
1.94113e-11
3.39076e-11
2.95946e-11
3.29857e-11
1.84861e-11
2.43206e-11
3.01421e-11
3.50858e-11
3.51203e-11
3.47319e-11
3.11522e-11
3.31327e-11
1.32721e-11
3.78659e-11
2.62153e-11
2.61656e-11
1.49474e-11
3.58682e-11
2.13035e-11
9.99999e-12
2.94376e-11
3.71902e-11
3.72197e-11
3.45947e-11
3.58171e-11
3.81994e-11
2.84094e-11
1.4765e-11
3.2758e-11
5.04766e-12
1.35526e-11
2.87155e-11
2.86796e-11
3.18958e-12
3.75742e-11
1.32584e-11
7.0375e-12
3.61132e-11
1.67298e-11
3.5529e-11
1.14831e-11
2.49481e-11
3.66556e-11
3.59358e-11
3.7821e-11
3.54653e-11
3.01892e-11
3.60239e-11
3.50491e-11
3.55935e-11
3.48779e-11
3.74102e-11
1.98041e-11
2.83633e-11
1.05464e-11
3.19083e-11
1.61678e-11
1.08743e-11
2.33609e-11
2.03172e-11
3.54172e-11
2.82675e-11
2.87533e-11
9.67426e-12
3.04429e-11
3.65078e-11
2.9009e-11
1.72246e-12
2.09867e-12
3.63453e-11
3.1459e-11
3.09575e-12
2.39275e-11
3.53906e-11
3.50782e-11
1.11788e-11
3.28082e-11
3.52859e-11
3.49744e-11
1.25869e-11
1.31326e-11
3.82491e-12
3.10795e-11
3.10415e-11
3.59262e-11
2.8436e-11
2.84241e-11
2.26782e-12
9.54138e-12
2.38784e-11
1.56233e-12
2.96196e-11
3.4986e-11
1.0718e-11
1.06109e-11
3.64614e-12
3.48232e-11
3.49512e-11
3.4951e-11
3.76513e-11
3.75214e-11
3.38162e-11
1.87918e-11
1.80677e-11
3.58859e-11
3.59979e-11
3.6736e-11
3.61866e-11
3.83103e-11
3.52351e-11
3.50573e-11
2.88283e-11
1.05535e-11
2.40763e-11
2.65677e-11
1.39933e-11
3.04154e-11
3.57259e-11
3.49691e-11
1.86697e-11
2.86746e-11
3.51221e-11
3.77349e-11
3.86382e-11
7.74582e-12
2.25406e-11
3.17927e-11
1.33429e-11
3.66132e-11
3.51847e-11
2.80341e-11
2.8035e-11
1.97978e-11
3.05971e-11
3.30859e-11
1.84953e-11
3.69118e-11
3.45456e-11
3.37478e-11
3.35239e-11
3.33539e-11
5.92932e-12
2.09466e-11
2.19856e-11
3.38215e-11
3.73158e-11
2.836e-11
7.45267e-12
5.79274e-12
5.57584e-12
1.90644e-11
1.21156e-11
3.48758e-11
3.49782e-11
3.3236e-11
6.99958e-12
3.29206e-11
3.80037e-11
3.51562e-11
2.98798e-11
3.6835e-11
3.81061e-11
3.81249e-11
3.07026e-11
3.53435e-11
3.49123e-11
7.86838e-12
3.6926e-11
3.6225e-11
2.07995e-11
2.156e-11
3.02334e-11
3.3406e-11
3.33138e-11
3.59079e-11
2.89973e-11
3.56015e-11
9.18684e-12
2.04184e-11
2.09029e-11
2.56814e-11
2.5808e-11
2.53603e-11
2.44677e-11
1.93232e-11
2.77072e-11
7.91734e-12
8.74047e-12
3.79779e-11
3.77073e-11
3.77301e-11
3.7849e-11
3.67238e-12
2.87751e-12
3.37446e-11
3.35421e-11
2.60148e-11
1.87139e-11
1.60452e-11
3.33429e-11
2.73345e-11
3.19687e-11
3.44038e-11
1.59819e-12
1.30665e-11
2.56294e-11
3.21527e-11
3.22716e-11
2.72599e-11
3.70581e-11
3.67567e-11
1.29915e-12
1.3996e-12
3.55213e-11
1.25469e-11
3.55248e-11
2.02119e-11
1.30966e-11
2.85944e-11
3.43522e-11
3.29197e-11
2.01806e-11
1.66333e-11
3.50255e-11
3.17645e-11
3.5245e-11
8.07133e-12
3.75529e-11
1.82249e-11
1.855e-11
3.61562e-11
2.5387e-11
3.51722e-11
3.26767e-11
3.25637e-11
1.29217e-11
2.03684e-11
9.63689e-12
3.32259e-12
3.83172e-12
3.61882e-12
3.55197e-11
3.55206e-11
3.13341e-11
3.14063e-11
3.5279e-11
3.58838e-11
3.58725e-11
2.95596e-11
2.36854e-11
5.01579e-12
3.64779e-11
3.49427e-11
2.72366e-11
2.98552e-11
2.97623e-11
1.73159e-11
3.02049e-11
3.44576e-11
2.36115e-11
3.51358e-11
3.66245e-11
3.67696e-11
3.56884e-11
1.15388e-12
2.39236e-11
3.86601e-11
3.27112e-11
3.22504e-11
3.02041e-11
3.32532e-11
3.33035e-11
1.99579e-11
1.31826e-11
3.31667e-11
2.54169e-11
3.1282e-11
3.17773e-11
3.45826e-11
2.71317e-11
3.05842e-11
2.61972e-11
2.65285e-11
2.15004e-11
3.73155e-11
3.49467e-11
3.6849e-11
3.75972e-11
9.55274e-12
3.35494e-11
1.53811e-11
1.69869e-11
3.28096e-11
2.46207e-11
3.55063e-11
3e-11
1.88109e-11
2.00618e-11
2.64119e-12
2.21231e-11
1.41789e-11
3.64393e-11
3.49497e-11
3.68175e-11
1.98543e-12
1.79813e-12
3.50679e-11
3.00346e-11
1.67573e-11
3.13545e-11
3.32312e-11
3.29465e-11
3.77315e-11
3.50805e-11
2.18814e-11
2.22554e-11
2.30172e-11
3.84806e-11
3.76206e-11
3.53073e-11
3.5332e-11
3.36702e-11
3.3299e-11
1.90095e-11
2.49644e-11
1.86303e-11
3.01989e-11
3.15326e-11
2.937e-11
3.49073e-11
3.59311e-11
3.49411e-11
3.49318e-11
3.63886e-11
3.50575e-11
8.0338e-12
2.62128e-11
2.75211e-11
3.43845e-11
3.43301e-11
3.53307e-11
1.03433e-11
1.93007e-11
2.6201e-11
2.69714e-11
5.38882e-12
2.38297e-11
1.56678e-11
3.09696e-11
1.9149e-11
1.93203e-11
1.78667e-11
3.59695e-11
3.54715e-11
3.75599e-11
3.58881e-11
3.46855e-11
2.25226e-11
2.11401e-11
3.27167e-11
3.25915e-11
1.92827e-11
8.46965e-12
9.24911e-12
3.37611e-11
2.37325e-11
2.36149e-11
8.91174e-12
9.59371e-12
3.68392e-11
1.2407e-11
1.28539e-11
1.508e-11
3.65019e-11
3.42407e-11
2.94876e-12
1.38456e-11
3.24613e-11
3.20771e-11
1.83865e-11
2.36979e-11
3.02308e-11
3.69561e-11
7.86627e-12
2.2145e-11
2.8542e-11
5.55758e-12
3.40684e-11
3.46617e-11
2.93875e-11
3.14917e-11
3.77121e-11
3.77838e-11
3.45762e-11
1.97845e-11
1.73987e-11
2.26964e-11
3.21749e-11
3.58189e-11
2.07345e-11
2.74701e-11
3.56028e-11
3.30883e-11
6.66621e-12
1.97105e-11
2.71529e-11
1.86612e-11
8.33431e-12
2.80897e-11
1.51006e-11
3.27751e-11
2.9612e-11
3.77233e-11
2.74244e-11
3.50557e-11
3.67698e-11
2.66982e-11
3.03237e-11
1.25191e-11
1.17785e-11
1.95385e-11
2.74866e-11
2.29063e-11
3.88636e-12
3.25347e-11
3.0903e-11
3.23215e-11
5.65933e-12
2.84587e-11
3.4682e-11
3.77782e-11
3.78568e-11
3.6714e-11
1.77345e-11
3.19424e-11
7.45136e-12
7.29373e-12
2.89046e-11
3.49108e-11
3.61027e-11
3.49533e-11
3.49641e-11
3.51958e-11
3.526e-11
3.4727e-11
1.98034e-11
3.77222e-11
3.45212e-11
2.90517e-11
3.11327e-11
3.76636e-11
3.55551e-11
3.42819e-11
3.43192e-11
2.81258e-11
3.007e-11
3.45741e-11
3.48736e-11
8.38261e-12
2.09944e-11
3.08708e-12
5.16253e-12
4.87754e-12
3.2253e-11
3.27147e-11
3.27756e-11
3.27979e-11
3.40653e-11
5.66961e-12
3.26846e-11
7.94176e-12
7.91578e-12
2.65822e-11
2.0047e-11
3.80176e-11
2.4248e-11
3.46976e-11
2.32302e-11
2.64771e-12
3.24868e-11
1.82968e-11
3.42955e-11
3.43244e-11
3.77253e-11
3.75632e-11
2.47521e-11
2.91202e-11
3.57726e-11
1.71231e-11
2.38797e-11
2.91895e-11
2.27157e-11
9.78384e-12
6.68565e-12
3.17026e-11
3.41056e-11
3.55798e-11
3.49696e-11
3.05477e-11
3.38149e-11
2.90304e-12
3.79903e-11
3.8045e-11
7.60386e-12
3.50808e-11
5.34406e-12
1.45531e-11
3.50086e-11
3.51766e-11
3.45177e-11
3.41089e-11
3.47371e-11
2.73661e-11
2.73354e-11
3.50567e-11
3.72803e-11
3.49531e-11
3.08524e-11
2.95398e-11
3.76757e-11
3.76467e-11
3.59674e-11
3.06559e-11
8.72945e-12
3.15382e-11
3.53425e-11
3.32567e-11
8.11361e-12
2.94853e-11
3.02497e-11
1.16137e-11
2.61541e-11
2.54804e-11
2.96535e-11
1.87047e-11
3.50695e-11
3.60201e-11
3.56944e-11
2.07714e-12
3.53075e-11
3.76121e-11
8.56706e-12
8.832e-12
2.17709e-11
2.379e-11
2.40127e-11
3.54984e-11
2.95613e-11
2.31255e-11
3.56296e-11
8.06045e-12
3.39125e-11
9.18422e-12
2.9395e-11
2.9247e-11
2.16559e-11
1.97398e-11
3.73727e-11
3.43632e-11
3.41596e-11
3.26364e-11
2.40783e-11
1.8413e-11
3.73184e-11
1.87084e-11
3.47107e-11
3.77388e-11
3.32863e-11
6.78074e-12
3.37649e-11
3.42457e-11
3.29299e-11
2.2706e-11
1.71753e-12
3.75447e-11
2.70516e-11
3.77621e-11
4.19478e-12
3.84944e-11
1.0023e-11
2.84329e-11
2.65184e-11
9.02385e-12
3.27325e-11
3.48696e-11
1.2535e-11
1.26736e-11
8.21615e-12
2.43824e-11
1.40375e-11
1.22936e-11
7.29136e-12
2.06372e-11
3.7159e-11
3.4964e-11
2.89216e-11
5.83705e-12
8.27145e-12
1.70891e-11
2.85875e-11
3.56071e-11
3.70086e-11
3.7015e-11
2.21631e-11
3.05297e-11
8.92616e-12
9.31768e-12
1.01436e-11
3.84656e-11
3.44672e-11
3.21226e-11
3.45506e-11
3.543e-11
3.54242e-11
3.07659e-11
3.12219e-11
1.82232e-11
1.86014e-11
1.14645e-11
3.23921e-11
3.71613e-11
3.71148e-11
3.49306e-11
7.88273e-12