/*--------------------------------*- C++ -*----------------------------------*\
  =========                 |
  \\      /  F ield         | OpenFOAM: The Open Source CFD Toolbox
   \\    /   O peration     | Website:  https://openfoam.org
    \\  /    A nd           | Version:  7
     \\/     M anipulation  |
\*---------------------------------------------------------------------------*/
FoamFile
{
    version     2.0;
    format      ascii;
    class       volVectorField;
    location    "2";
    object      U;
}
// * * * * * * * * * * * * * * * * * * * * * * * * * * * * * * * * * * * * * //

dimensions      [0 1 -1 0 0 0 0];

internalField   nonuniform List<vector> 
13182
(
(0.5 -3.21511e-15 -2.70462e-31)
(0.5 7.83429e-16 0)
(0.5 -2.5294e-14 -8.43498e-31)
(0.5 -6.26406e-16 2.11858e-30)
(0.5 9.25302e-15 -7.08328e-32)
(0.5 -1.08806e-15 -1.02114e-30)
(0.5 1.45689e-15 -1.9822e-30)
(0.5 1.1433e-15 2.32545e-30)
(0.5 -1.62574e-15 1.23268e-30)
(0.5 -6.22378e-15 -8.75061e-31)
(0.5 -1.19639e-15 0)
(0.5 -7.84202e-16 9.20851e-33)
(0.5 -3.65364e-15 1.20782e-31)
(0.5 -3.2456e-15 2.28163e-30)
(0.5 1.70288e-15 0)
(0.5 1.44461e-15 -1.00557e-30)
(0.5 -1.08976e-15 5.96913e-31)
(0.5 2.06505e-14 0)
(0.5 2.4908e-15 1.93009e-30)
(0.5 4.67933e-15 0)
(0.5 -2.06331e-14 8.58011e-31)
(0.5 2.92561e-18 0)
(0.5 -2.52793e-15 -6.4245e-32)
(0.5 -9.1775e-15 -3.60845e-30)
(0.5 5.6374e-15 -2.10067e-31)
(0.5 1.20899e-14 0)
(0.5 2.35481e-15 0)
(0.5 -1.08861e-14 0)
(0.5 -4.07091e-15 -3.0011e-31)
(0.5 2.35516e-14 3.74559e-30)
(0.5 2.38579e-14 0)
(0.5 -1.89554e-15 -2.26342e-30)
(0.5 1.10153e-15 4.93198e-31)
(0.5 7.04812e-15 -3.91403e-31)
(0.5 2.21071e-14 1.12721e-30)
(0.5 1.64409e-14 0)
(0.5 3.90956e-15 0)
(0.5 -1.44658e-14 1.32467e-30)
(0.5 -8.58033e-15 0)
(0.5 -6.22408e-15 1.07872e-30)
(0.5 8.21053e-15 2.79764e-32)
(0.5 -2.95151e-14 -2.19764e-31)
(0.5 1.84154e-15 -8.7613e-31)
(0.5 -4.13838e-15 2.29814e-31)
(0.5 4.13195e-15 1.21808e-31)
(0.5 1.5532e-14 0)
(0.5 1.17682e-15 -2.52941e-30)
(0.5 -1.40309e-14 0)
(0.5 -9.55667e-15 -6.56656e-31)
(0.5 1.27807e-15 0)
(0.5 -1.32867e-14 0)
(0.5 -1.85985e-14 0)
(0.5 -4.08479e-15 -4.74034e-31)
(0.5 -2.63955e-16 -8.6812e-31)
(0.5 -6.04984e-15 0)
(0.5 4.37231e-16 0)
(0.5 -2.15318e-15 0)
(0.5 -1.81947e-15 8.80161e-31)
(0.5 -6.29936e-15 1.04636e-30)
(0.5 1.85713e-14 0)
(0.5 7.81569e-16 0)
(0.5 1.00455e-16 -2.31946e-30)
(0.5 -3.34124e-15 1.00952e-30)
(0.5 -1.80002e-14 -1.66915e-30)
(0.5 9.95753e-15 -1.88481e-30)
(0.5 1.32152e-14 3.41534e-30)
(0.5 -7.85999e-15 9.71129e-31)
(0.5 8.06856e-15 -4.47354e-31)
(0.5 -2.79759e-15 1.47365e-31)
(0.5 4.17761e-15 9.35311e-31)
(0.5 -2.18396e-14 3.76795e-32)
(0.5 2.39114e-16 5.96256e-31)
(0.5 1.09855e-15 -1.2579e-30)
(0.5 2.59036e-14 0)
(0.5 2.57824e-15 -3.64003e-31)
(0.5 5.51782e-15 -2.35033e-30)
(0.5 1.83207e-15 0)
(0.5 4.74823e-16 -6.69981e-31)
(0.5 -2.95256e-15 -2.49943e-30)
(0.5 -6.71123e-15 4.38512e-30)
(0.5 9.35413e-15 6.11823e-31)
(0.5 1.05185e-14 -9.10229e-31)
(0.5 1.3302e-15 -5.43202e-31)
(0.5 -5.14664e-15 4.95158e-31)
(0.5 -8.65283e-15 4.34644e-31)
(0.5 -2.79831e-15 0)
(0.5 -7.64002e-15 0)
(0.5 -1.02459e-14 8.75482e-31)
(0.5 5.27568e-15 0)
(0.5 5.29742e-15 8.79758e-31)
(0.5 -1.0708e-14 0)
(0.5 1.40488e-14 1.26359e-30)
(0.5 1.20696e-15 -4.41566e-31)
(0.5 -1.61305e-14 -1.02184e-30)
(0.5 6.06544e-15 2.24936e-30)
(0.5 -8.75785e-16 0)
(0.5 -1.78986e-14 -7.02631e-31)
(0.5 -3.15459e-15 -5.61541e-31)
(0.5 3.6523e-15 0)
(0.5 4.86573e-15 0)
(0.5 3.30892e-15 5.83134e-31)
(0.5 -1.1061e-14 0)
(0.5 1.37431e-15 0)
(0.5 7.65427e-17 1.9963e-30)
(0.5 1.5174e-15 1.14626e-30)
(0.5 4.85224e-15 8.32857e-31)
(0.5 -3.81956e-15 4.18651e-31)
(0.5 -2.28561e-14 3.539e-31)
(0.5 5.4046e-15 2.95143e-30)
(0.5 1.32837e-14 0)
(0.5 2.76843e-15 -2.76256e-30)
(0.5 1.62846e-15 -5.60696e-31)
(0.5 -2.58788e-16 1.37034e-30)
(0.5 -3.81941e-16 1.64026e-32)
(0.5 -7.04696e-15 -7.95044e-31)
(0.5 2.80896e-16 1.26299e-30)
(0.5 1.33864e-16 -1.49422e-30)
(0.5 -3.1041e-14 -2.29436e-31)
(0.5 -1.61111e-14 -1.41518e-30)
(0.5 -1.52741e-14 -9.63576e-33)
(0.5 -8.52776e-15 0)
(0.5 5.50063e-16 7.56508e-31)
(0.5 6.2466e-15 0)
(0.5 1.63523e-16 1.98525e-30)
(0.5 -1.44652e-15 7.88296e-31)
(0.5 -4.19923e-15 0)
(0.5 -2.63724e-15 9.58421e-31)
(0.5 -1.24782e-15 -5.70173e-31)
(0.5 -1.25317e-16 2.21037e-30)
(0.5 -1.78698e-14 0)
(0.5 -9.83944e-15 -1.81917e-31)
(0.5 -8.61272e-15 0)
(0.5 -2.20704e-15 0)
(0.5 -5.62676e-15 6.24616e-31)
(0.5 -4.20057e-15 3.0616e-30)
(0.5 -2.1167e-15 -2.13528e-30)
(0.5 -1.08159e-15 -1.66157e-31)
(0.5 1.60055e-15 4.82757e-31)
(0.5 -3.63658e-16 0)
(0.5 3.73938e-15 -3.85228e-30)
(0.5 1.4948e-14 -1.43824e-30)
(0.5 1.54056e-14 0)
(0.5 -2.07099e-14 -3.19693e-31)
(0.5 -6.6041e-15 0)
(0.5 -1.49666e-14 -9.50769e-31)
(0.5 -1.21343e-15 6.41991e-33)
(0.5 3.95994e-15 0)
(0.5 -7.88942e-15 0)
(0.5 1.30378e-14 1.21157e-30)
(0.5 -1.85757e-14 0)
(0.5 -3.06313e-14 1.97802e-31)
(0.5 1.3016e-14 -7.78409e-31)
(0.5 9.91515e-15 0)
(0.5 4.14706e-15 -6.18503e-31)
(0.5 -5.163e-15 -1.44806e-30)
(0.5 -5.98634e-15 -1.68265e-30)
(0.5 -1.77558e-14 0)
(0.5 1.85737e-14 -2.25456e-33)
(0.5 6.82033e-15 2.34121e-31)
(0.5 1.26008e-15 0)
(0.5 -6.9456e-16 8.89947e-31)
(0.5 -1.24289e-14 1.2853e-30)
(0.5 -1.35636e-14 -6.39948e-31)
(0.5 -1.08141e-16 2.28006e-30)
(0.5 -2.26112e-15 4.31172e-33)
(0.5 2.16036e-15 -5.07576e-33)
(0.5 7.65173e-15 -1.29144e-30)
(0.5 2.07057e-14 1.81816e-30)
(0.5 9.30238e-15 -3.85652e-31)
(0.5 -7.42823e-15 0)
(0.5 -2.00805e-15 0)
(0.5 -6.33442e-15 1.14452e-30)
(0.5 -5.93219e-15 0)
(0.5 -8.3087e-15 7.97849e-32)
(0.5 9.09359e-15 -6.93333e-31)
(0.5 -2.18238e-15 -2.03923e-30)
(0.5 -1.95758e-14 0)
(0.5 -6.91953e-15 6.1142e-31)
(0.5 -2.64457e-15 0)
(0.5 3.76638e-15 0)
(0.5 4.889e-15 8.48508e-31)
(0.5 -1.52165e-14 6.83852e-31)
(0.5 1.20361e-14 0)
(0.5 -8.81488e-17 -2.96131e-30)
(0.5 -1.94835e-16 4.84677e-31)
(0.5 9.22124e-15 7.19658e-31)
(0.5 -5.07889e-15 -1.38383e-30)
(0.5 -2.55917e-15 2.2523e-30)
(0.5 2.42436e-15 -1.24598e-30)
(0.5 -1.42914e-15 -8.76147e-31)
(0.5 4.18962e-15 6.17204e-31)
(0.5 1.2675e-14 -1.39558e-33)
(0.5 -1.02879e-15 5.9301e-31)
(0.5 -8.3742e-16 0)
(0.5 1.18077e-14 -2.46708e-30)
(0.5 -1.10216e-14 -7.37902e-31)
(0.5 -9.55999e-15 -1.27234e-30)
(0.5 -5.27712e-15 -4.81151e-31)
(0.5 -4.83676e-15 -1.62974e-30)
(0.5 5.60097e-15 -4.54086e-31)
(0.5 -7.51996e-15 2.18555e-30)
(0.5 -3.75377e-15 -3.55035e-30)
(0.5 -1.90798e-14 -1.10842e-31)
(0.5 1.58296e-15 0)
(0.5 5.12165e-15 1.03246e-32)
(0.5 -3.34892e-17 -3.23873e-31)
(0.5 1.09449e-14 4.44633e-31)
(0.5 -2.53902e-14 0)
(0.5 5.89711e-15 -1.43426e-30)
(0.5 8.71465e-15 4.68114e-31)
(0.5 -8.41913e-15 0)
(0.5 -1.37101e-14 0)
(0.5 -4.50365e-15 2.15401e-30)
(0.5 -4.29085e-16 -2.58658e-30)
(0.5 2.7419e-15 0)
(0.5 -4.82366e-15 0)
(0.5 -7.84824e-15 -1.68782e-30)
(0.5 6.88183e-15 2.46532e-30)
(0.5 -5.69582e-15 1.65758e-30)
(0.5 -9.55731e-15 6.64843e-32)
(0.5 1.38713e-14 0)
(0.5 6.79804e-15 0)
(0.5 -2.72035e-15 -2.19466e-31)
(0.5 -5.08922e-15 -5.51873e-31)
(0.5 -7.99658e-15 -4.49014e-31)
(0.5 3.27419e-15 2.50738e-30)
(0.5 -1.96639e-15 -1.07272e-30)
(0.5 2.81138e-14 0)
(0.5 4.93736e-15 -1.23261e-30)
(0.5 2.27832e-16 4.20733e-30)
(0.5 2.55066e-15 -1.17031e-30)
(0.5 7.1627e-15 1.15142e-30)
(0.5 3.34924e-15 -1.14234e-30)
(0.5 -3.03221e-15 0)
(0.5 2.11973e-15 2.84896e-31)
(0.5 -7.19047e-16 0)
(0.5 -1.44413e-14 5.07074e-33)
(0.5 -2.83651e-15 -2.22949e-30)
(0.5 -1.7721e-15 0)
(0.5 8.17325e-15 8.67249e-33)
(0.5 -5.0436e-15 -5.06707e-31)
(0.5 -1.46026e-14 2.66029e-31)
(0.5 -1.8015e-15 1.13018e-30)
(0.5 -1.38739e-15 -9.48262e-31)
(0.5 -2.79413e-15 3.09074e-30)
(0.5 5.07272e-15 -1.06178e-30)
(0.5 -1.42697e-14 -1.76313e-30)
(0.5 -4.16221e-15 3.44177e-30)
(0.5 -2.14195e-15 1.28797e-31)
(0.5 1.16157e-15 -8.60961e-31)
(0.5 -2.33016e-15 -5.02474e-31)
(0.5 -7.66873e-15 9.82424e-31)
(0.5 -7.28735e-15 -2.2858e-30)
(0.5 -2.78845e-15 7.00994e-31)
(0.5 1.39664e-14 3.37401e-31)
(0.5 4.27978e-15 1.04781e-30)
(0.5 -2.18569e-16 3.22914e-31)
(0.5 -5.55911e-15 1.52553e-31)
(0.5 -1.15207e-14 4.63026e-32)
(0.5 -3.46901e-15 3.36614e-31)
(0.5 1.36778e-14 0)
(0.5 -3.37713e-15 -3.32804e-30)
(0.5 2.91307e-15 -1.1395e-30)
(0.5 8.88363e-15 0)
(0.5 9.79244e-15 1.03776e-30)
(0.5 -7.49249e-15 -7.56591e-31)
(0.5 -2.24039e-14 -4.25065e-31)
(0.5 -1.89254e-15 0)
(0.5 3.45138e-15 1.80697e-30)
(0.5 2.51441e-16 1.5019e-31)
(0.5 9.26219e-16 2.31305e-30)
(0.5 1.71946e-15 2.48115e-30)
(0.5 -9.18163e-16 -2.17832e-30)
(0.5 -3.4187e-15 0)
(0.5 5.17865e-15 0)
(0.5 -2.05752e-14 1.25115e-30)
(0.5 -3.67967e-15 -2.31292e-30)
(0.5 -1.46507e-15 3.26883e-30)
(0.5 -3.21439e-15 0)
(0.5 1.89574e-16 0)
(0.5 6.23102e-15 2.50892e-30)
(0.5 -1.23879e-14 -6.63639e-31)
(0.5 -2.4263e-15 0)
(0.5 -6.23303e-15 -1.42529e-30)
(0.5 -4.66843e-15 2.65514e-31)
(0.5 1.84047e-14 -1.733e-31)
(0.5 -1.30604e-14 -1.23413e-30)
(0.5 8.14848e-15 2.38206e-30)
(0.5 1.85638e-14 -3.50049e-31)
(0.5 -1.74324e-15 1.28221e-30)
(0.5 -3.50497e-15 -6.4807e-31)
(0.5 3.49553e-15 5.28879e-31)
(0.5 -1.97132e-15 -2.67261e-31)
(0.5 1.16478e-14 4.82836e-31)
(0.5 1.79743e-15 -5.9494e-31)
(0.5 1.25202e-15 -8.66781e-31)
(0.5 6.2686e-15 0)
(0.5 7.20185e-15 0)
(0.5 2.8714e-15 1.91142e-30)
(0.5 3.69512e-15 6.46521e-31)
(0.5 3.21265e-15 -8.50192e-31)
(0.5 -1.88671e-14 -2.5489e-30)
(0.5 -7.13894e-15 -1.09794e-30)
(0.5 -7.03255e-15 -5.7753e-31)
(0.5 -2.42361e-14 0)
(0.5 -9.14594e-15 6.53919e-31)
(0.5 -1.26211e-15 -1.87579e-30)
(0.5 3.41544e-15 -1.00739e-30)
(0.5 9.70744e-17 -2.52548e-30)
(0.5 -7.82187e-15 7.99065e-35)
(0.5 -4.70975e-15 0)
(0.5 3.4358e-15 1.13e-30)
(0.5 -3.85655e-15 6.34949e-31)
(0.5 2.253e-15 -2.42058e-30)
(0.5 1.60794e-14 0)
(0.5 4.31056e-15 2.70973e-30)
(0.5 6.79471e-16 -2.30537e-30)
(0.5 3.18649e-15 0)
(0.5 1.36157e-14 -4.44261e-30)
(0.5 8.62111e-15 -5.39943e-31)
(0.5 1.05195e-14 8.13287e-31)
(0.5 -1.70841e-15 -3.26657e-31)
(0.5 8.76996e-16 -2.21305e-30)
(0.5 3.61842e-16 1.09435e-30)
(0.5 4.13424e-16 -1.80807e-30)
(0.5 5.2498e-16 2.30658e-30)
(0.5 1.2058e-14 -1.09555e-32)
(0.5 3.99291e-15 0)
(0.5 -2.3312e-14 0)
(0.5 4.44969e-15 7.23895e-31)
(0.5 6.19498e-15 0)
(0.5 7.2758e-15 0)
(0.5 -4.78993e-15 0)
(0.5 -2.97351e-15 1.1243e-30)
(0.5 -7.66334e-15 0)
(0.5 -7.48418e-15 -1.20522e-31)
(0.5 1.1023e-14 1.85729e-30)
(0.5 1.55342e-15 9.88346e-31)
(0.5 1.92954e-15 0)
(0.5 -7.33768e-15 -5.77164e-31)
(0.5 -1.8382e-14 -1.6229e-31)
(0.5 -5.30938e-15 0)
(0.5 -3.93294e-16 3.21118e-31)
(0.5 1.45952e-14 0)
(0.5 -8.89947e-15 -8.33049e-31)
(0.5 -1.07061e-15 0)
(0.5 -2.3792e-15 -1.88459e-30)
(0.5 -3.81729e-15 0)
(0.5 -7.45836e-15 2.14343e-30)
(0.5 1.66329e-15 1.97617e-30)
(0.5 4.10403e-15 -1.85693e-30)
(0.5 7.39586e-15 3.45405e-30)
(0.5 -1.08985e-14 -2.79227e-31)
(0.5 -1.73303e-16 -2.11794e-30)
(0.5 1.20999e-15 3.04244e-30)
(0.5 -6.95989e-16 9.96537e-31)
(0.5 -5.72785e-15 1.73779e-30)
(0.5 -6.58681e-15 1.81118e-30)
(0.5 4.44648e-15 5.81215e-31)
(0.5 -3.39753e-15 -2.20317e-30)
(0.5 2.92564e-16 -2.50738e-31)
(0.5 1.09804e-14 0)
(0.5 -8.58209e-15 3.13283e-31)
(0.5 1.67858e-17 -6.23334e-31)
(0.5 1.59267e-14 9.72794e-31)
(0.5 -3.59065e-15 0)
(0.5 -3.65198e-16 -1.5905e-30)
(0.5 3.39449e-15 -2.37665e-30)
(0.5 -8.9956e-17 1.43262e-33)
(0.5 6.00151e-15 0)
(0.5 5.08312e-15 1.13231e-30)
(0.5 1.48681e-15 -1.17044e-30)
(0.5 -8.15023e-15 2.87765e-31)
(0.5 4.59458e-15 3.72921e-31)
(0.5 -3.6511e-15 2.69876e-30)
(0.5 6.20539e-16 -8.55446e-31)
(0.5 3.53018e-15 1.61104e-30)
(0.5 3.59186e-16 3.98985e-31)
(0.5 -3.18681e-15 3.62676e-32)
(0.5 1.68192e-14 -2.59182e-31)
(0.5 -1.95572e-14 1.98964e-30)
(0.5 1.25889e-14 1.15925e-30)
(0.5 1.25358e-14 2.22631e-30)
(0.5 4.9604e-16 1.09733e-30)
(0.5 6.52758e-15 6.43532e-31)
(0.5 -1.38986e-14 2.6163e-32)
(0.5 -2.61842e-16 1.39519e-30)
(0.5 -1.64854e-15 5.97605e-31)
(0.5 1.44331e-14 -3.76787e-32)
(0.5 4.08306e-15 -2.05746e-32)
(0.5 8.43709e-15 0)
(0.5 1.81198e-15 1.60487e-31)
(0.5 -1.22672e-16 -2.44445e-30)
(0.5 1.09966e-14 9.29417e-31)
(0.5 -1.3773e-15 8.17808e-31)
(0.5 -3.52358e-15 0)
(0.5 4.68685e-15 0)
(0.5 -4.12638e-15 -5.11907e-31)
(0.5 -2.26635e-14 1.92682e-30)
(0.5 2.51769e-16 -6.40111e-31)
(0.5 -1.6341e-14 0)
(0.5 -1.43081e-14 -5.52128e-31)
(0.5 -3.83418e-16 4.78399e-31)
(0.5 7.96831e-15 -4.66246e-31)
(0.5 8.74334e-16 -1.65162e-30)
(0.5 -9.43344e-15 1.24533e-30)
(0.5 -8.27746e-15 -9.95463e-31)
(0.5 -2.82762e-15 2.43224e-30)
(0.5 2.1527e-15 0)
(0.5 -5.9347e-15 -1.63575e-30)
(0.5 1.50435e-14 -2.00927e-30)
(0.5 1.01768e-14 0)
(0.5 1.16207e-14 1.41065e-31)
(0.5 6.7041e-15 -4.24279e-31)
(0.5 3.62828e-15 0)
(0.5 -8.92388e-15 3.38087e-31)
(0.5 5.06694e-16 0)
(0.5 2.13668e-14 -3.99812e-32)
(0.5 -4.72945e-15 0)
(0.5 -8.2796e-15 0)
(0.5 8.00803e-15 0)
(0.5 4.26575e-15 -4.51967e-30)
(0.5 1.73155e-14 2.88112e-31)
(0.5 1.99611e-14 0)
(0.5 4.80268e-16 0)
(0.5 1.3684e-14 8.18453e-31)
(0.5 -1.56153e-15 1.13873e-30)
(0.5 -1.30822e-15 8.6078e-31)
(0.5 1.90389e-15 0)
(0.5 3.31011e-15 -1.09987e-30)
(0.5 -1.41275e-15 -1.14902e-31)
(0.5 8.64225e-15 1.83668e-30)
(0.5 6.78209e-15 2.4264e-31)
(0.5 1.3704e-16 2.32976e-30)
(0.5 7.39425e-16 1.23386e-30)
(0.5 -1.58912e-14 0)
(0.5 4.90149e-17 1.0204e-30)
(0.5 -4.82712e-17 3.59043e-31)
(0.5 -1.57705e-14 8.61827e-31)
(0.5 1.26756e-14 0)
(0.5 -1.05803e-14 -4.20907e-31)
(0.5 8.71151e-15 -1.4604e-30)
(0.5 -6.17125e-15 0)
(0.5 4.68225e-15 -1.05674e-30)
(0.5 -1.1374e-14 2.61959e-30)
(0.5 1.48602e-15 0)
(0.5 -1.48532e-14 0)
(0.5 3.44207e-16 0)
(0.5 1.02999e-14 0)
(0.5 2.77953e-15 1.21997e-30)
(0.5 -1.34176e-15 -2.23387e-30)
(0.5 9.43319e-15 2.13809e-30)
(0.5 -7.35427e-15 6.6873e-31)
(0.5 1.77889e-16 6.01453e-31)
(0.5 -2.11277e-14 3.20443e-31)
(0.5 -8.70657e-15 1.86963e-30)
(0.5 3.54248e-15 0)
(0.5 1.15586e-14 0)
(0.5 4.39524e-15 0)
(0.5 -2.04852e-15 2.98422e-30)
(0.5 -2.29817e-16 -1.15266e-30)
(0.5 -1.8003e-15 2.66587e-31)
(0.5 -2.36199e-14 2.03169e-32)
(0.5 -7.37391e-16 1.84883e-30)
(0.5 -4.44169e-15 0)
(0.5 1.36206e-15 2.7034e-30)
(0.5 5.72378e-15 -7.75943e-31)
(0.5 -8.68723e-15 -4.00056e-31)
(0.5 -8.86199e-16 5.13049e-34)
(0.5 -7.35689e-16 0)
(0.5 -4.79704e-15 -1.78095e-30)
(0.5 -3.91684e-14 0)
(0.5 1.73228e-16 -2.4143e-30)
(0.5 -2.54685e-15 0)
(0.5 -1.48074e-15 -4.34308e-31)
(0.5 2.21748e-14 7.12391e-31)
(0.5 1.5673e-14 -6.30689e-31)
(0.5 -1.99031e-14 -1.43423e-31)
(0.5 1.75619e-14 6.23802e-31)
(0.5 2.64218e-15 -2.4152e-30)
(0.5 -5.03057e-16 0)
(0.5 2.03425e-15 -2.21089e-30)
(0.5 -8.28378e-15 0)
(0.5 -1.658e-15 0)
(0.5 -4.68348e-15 -1.76834e-31)
(0.5 2.83456e-14 -5.68422e-31)
(0.5 -5.29609e-15 -2.74502e-30)
(0.5 -4.83659e-15 1.58266e-30)
(0.5 -7.61621e-15 0)
(0.5 -4.0221e-14 1.7825e-31)
(0.5 -6.07222e-16 0)
(0.5 -8.31696e-15 8.73188e-31)
(0.5 1.12775e-15 -1.11263e-30)
(0.5 3.51434e-15 8.43806e-31)
(0.5 9.73298e-15 0)
(0.5 1.56029e-14 6.16725e-31)
(0.5 -1.22308e-14 -1.40775e-30)
(0.5 -1.68916e-14 -4.08576e-32)
(0.5 6.77574e-15 0)
(0.5 -3.76504e-15 -1.30574e-30)
(0.5 5.01486e-17 0)
(0.5 -1.17126e-15 1.24545e-30)
(0.5 1.35294e-15 5.85733e-31)
(0.5 -7.61169e-16 0)
(0.5 9.25309e-15 -6.32316e-31)
(0.5 1.91721e-15 -2.67379e-31)
(0.5 -2.49014e-15 0)
(0.5 3.32824e-15 0)
(0.5 -9.36941e-15 -2.19943e-30)
(0.5 1.03953e-14 7.15333e-31)
(0.5 -3.20212e-15 7.11095e-31)
(0.5 -7.33035e-15 0)
(0.5 1.18828e-15 0)
(0.5 -2.41945e-14 1.96248e-30)
(0.5 4.40956e-15 1.81483e-30)
(0.5 7.85875e-16 -1.18474e-32)
(0.5 -3.78009e-15 1.16227e-30)
(0.5 -2.59471e-16 0)
(0.5 5.89847e-15 -1.09851e-30)
(0.5 -3.72774e-14 -6.16735e-31)
(0.5 6.14531e-16 -2.18047e-30)
(0.5 -1.19654e-16 0)
(0.5 1.91702e-15 -5.56906e-31)
(0.5 1.93156e-14 3.44604e-31)
(0.5 -1.11076e-14 -7.23554e-31)
(0.5 1.65463e-15 0)
(0.5 -5.25657e-16 1.04699e-30)
(0.5 -1.02995e-14 0)
(0.5 7.52406e-15 0)
(0.5 9.8055e-15 -8.72354e-31)
(0.5 2.11568e-15 8.48609e-31)
(0.5 -5.56213e-15 -1.81371e-30)
(0.5 -3.12028e-15 1.2018e-30)
(0.5 -3.73662e-15 1.04835e-30)
(0.5 -1.71471e-14 -9.94373e-32)
(0.5 -1.08872e-15 -1.04742e-30)
(0.5 3.03885e-15 1.09016e-30)
(0.5 -2.4677e-14 -1.01181e-30)
(0.5 3.67025e-15 0)
(0.5 4.03919e-15 0)
(0.5 -8.12253e-16 0)
(0.5 -2.63873e-15 -1.02774e-30)
(0.5 6.11513e-15 -1.31343e-30)
(0.5 -4.78926e-15 -3.5816e-31)
(0.5 -1.98953e-15 -2.33415e-30)
(0.5 -4.02093e-15 -4.1058e-31)
(0.5 8.89606e-15 8.533e-31)
(0.5 -5.11031e-16 -2.11992e-30)
(0.5 1.3408e-14 1.28904e-30)
(0.5 1.53554e-14 -2.18917e-30)
(0.5 9.07481e-15 -5.92752e-31)
(0.5 4.65628e-15 1.12804e-30)
(0.5 1.21502e-15 0)
(0.5 9.37558e-16 -1.7403e-30)
(0.5 2.87481e-15 -6.28121e-31)
(0.5 4.23678e-16 -3.76826e-32)
(0.5 5.00001e-16 6.10394e-31)
(0.5 -5.38561e-15 5.46083e-31)
(0.5 -2.16975e-15 -2.77813e-30)
(0.5 2.14791e-15 2.9859e-30)
(0.5 4.71815e-15 -9.63698e-31)
(0.5 1.73381e-14 0)
(0.5 1.87105e-15 -2.85695e-30)
(0.5 5.98309e-15 -9.33735e-31)
(0.5 1.043e-15 2.24381e-30)
(0.5 -5.93057e-15 2.15586e-30)
(0.5 6.81154e-15 -8.76187e-31)
(0.5 -2.1469e-14 2.55836e-31)
(0.5 -2.63111e-14 1.01282e-30)
(0.5 -2.3397e-15 0)
(0.5 -7.54495e-15 -2.43871e-31)
(0.5 1.89259e-14 1.17338e-30)
(0.5 7.65715e-15 -1.32903e-30)
(0.5 5.47826e-15 -9.79023e-31)
(0.5 1.22878e-15 2.0884e-30)
(0.5 -1.23983e-15 -2.3837e-30)
(0.5 -7.04676e-15 0)
(0.5 -3.13077e-15 1.08362e-30)
(0.5 -2.69402e-15 -1.2959e-30)
(0.5 -1.81293e-14 7.45919e-31)
(0.5 -7.31325e-15 1.97441e-30)
(0.5 -2.35911e-14 0)
(0.5 9.68257e-16 3.30187e-30)
(0.5 -6.22969e-15 -5.13933e-33)
(0.5 -7.32974e-15 -1.12465e-30)
(0.5 7.81661e-15 -5.37529e-31)
(0.5 -3.22595e-15 0)
(0.5 7.46394e-16 2.16898e-30)
(0.5 1.61306e-15 -2.35369e-30)
(0.5 9.91193e-15 -1.41839e-30)
(0.5 1.02244e-14 -1.39666e-30)
(0.5 -1.67089e-15 0)
(0.5 -6.33578e-15 2.01621e-30)
(0.5 7.54311e-15 -1.91126e-30)
(0.5 5.76061e-15 -2.96558e-30)
(0.5 -1.38165e-14 -1.22388e-30)
(0.5 -2.19955e-15 -8.39753e-31)
(0.5 1.00053e-15 0)
(0.5 4.25203e-15 1.63809e-30)
(0.5 -5.58048e-16 2.81323e-30)
(0.5 -1.65622e-16 2.3862e-30)
(0.5 -1.57368e-15 0)
(0.5 3.06021e-15 0)
(0.5 -8.31497e-16 -1.71239e-30)
(0.5 -2.02375e-14 2.27228e-31)
(0.5 -4.81059e-15 6.10873e-33)
(0.5 -8.25167e-15 -2.40659e-31)
(0.5 -6.57263e-15 -2.38305e-30)
(0.5 1.33242e-14 -1.14914e-30)
(0.5 3.38332e-15 0)
(0.5 -1.07272e-15 -2.58947e-30)
(0.5 -1.19049e-15 -4.82677e-31)
(0.5 7.66914e-16 1.0323e-30)
(0.5 4.32598e-15 -9.88926e-31)
(0.5 1.22421e-14 7.56876e-31)
(0.5 -2.62308e-14 1.16146e-31)
(0.5 -2.40481e-14 -1.2511e-30)
(0.5 2.51842e-15 9.35396e-31)
(0.5 4.45151e-15 3.74451e-31)
(0.5 -8.12532e-15 4.91612e-31)
(0.5 -8.55119e-16 -2.29481e-30)
(0.5 -2.43427e-14 0)
(0.5 -7.26576e-15 0)
(0.5 1.75107e-15 -1.25418e-30)
(0.5 -3.26829e-14 9.29157e-31)
(0.5 -2.3679e-14 -1.41293e-30)
(0.5 8.91397e-15 -2.33907e-30)
(0.5 5.88791e-16 -2.44582e-30)
(0.5 8.3195e-15 0)
(0.5 -6.02753e-15 -1.35542e-31)
(0.5 9.7169e-15 6.38218e-31)
(0.5 9.55758e-15 0)
(0.5 -8.15989e-15 0)
(0.5 -1.35446e-14 2.26139e-31)
(0.5 -4.76426e-15 0)
(0.5 -1.89563e-14 1.25061e-30)
(0.5 2.8867e-16 -6.60499e-31)
(0.5 1.3964e-16 -2.71801e-31)
(0.5 1.78453e-17 9.68985e-31)
(0.5 -3.82664e-16 -8.72694e-33)
(0.5 -9.91745e-16 1.20597e-30)
(0.5 2.82053e-14 0)
(0.5 9.51691e-15 -1.95588e-30)
(0.5 -7.51699e-15 2.1918e-30)
(0.5 -1.4364e-15 -2.7715e-33)
(0.5 2.02874e-15 -1.44328e-31)
(0.5 -4.58399e-16 0)
(0.5 -1.26133e-15 -6.14913e-31)
(0.5 -1.87572e-14 -6.76175e-31)
(0.5 2.60134e-15 1.94194e-31)
(0.5 1.92306e-15 -1.29046e-30)
(0.5 1.69357e-15 3.658e-30)
(0.5 -2.98322e-15 6.14764e-31)
(0.5 8.72959e-15 -5.55108e-31)
(0.5 2.71554e-15 0)
(0.5 3.84391e-15 -7.94774e-31)
(0.5 1.17522e-15 1.27249e-30)
(0.5 4.64336e-16 7.59627e-31)
(0.5 -8.39745e-15 -5.37233e-32)
(0.5 7.97588e-15 -2.89978e-31)
(0.5 1.73868e-14 -3.41661e-30)
(0.5 7.99498e-18 0)
(0.5 -1.62978e-14 -4.68555e-31)
(0.5 -2.44952e-15 9.88904e-31)
(0.5 1.87829e-15 2.07726e-30)
(0.5 -6.07526e-15 1.97006e-30)
(0.5 2.13055e-15 2.23209e-30)
(0.5 2.36246e-15 -1.11819e-30)
(0.5 -2.24602e-16 0)
(0.5 2.49334e-16 -9.01605e-31)
(0.5 8.1537e-16 0)
(0.5 -7.5288e-15 0)
(0.5 -2.5089e-16 0)
(0.5 -6.00664e-16 -1.80923e-30)
(0.5 -6.01272e-15 1.35375e-31)
(0.5 -1.52212e-14 3.5803e-31)
(0.5 9.54639e-15 -5.02863e-31)
(0.5 -3.63613e-15 -6.10624e-31)
(0.5 2.20969e-14 8.58649e-31)
(0.5 1.14591e-15 2.36852e-30)
(0.5 -7.81193e-15 1.3422e-30)
(0.5 -2.42401e-15 1.2761e-30)
(0.5 -1.92712e-15 0)
(0.5 9.3242e-15 1.08674e-30)
(0.5 -7.11813e-16 2.63972e-30)
(0.5 2.92593e-16 0)
(0.5 1.70954e-15 0)
(0.5 -4.02214e-15 0)
(0.5 -1.2013e-14 2.60135e-31)
(0.5 -1.45802e-15 -2.37746e-30)
(0.5 -2.99746e-15 2.25519e-30)
(0.5 -2.38442e-15 -3.13292e-30)
(0.5 -5.11289e-15 0)
(0.5 -3.2327e-15 -1.22466e-30)
(0.5 3.02522e-15 -2.35236e-30)
(0.5 3.09915e-15 1.94323e-30)
(0.5 7.99279e-15 0)
(0.5 -1.7418e-15 0)
(0.5 8.73178e-17 1.002e-30)
(0.5 -1.53831e-14 5.86564e-31)
(0.5 1.47787e-15 -2.783e-31)
(0.5 2.88894e-15 0)
(0.5 -3.79914e-15 3.62004e-30)
(0.5 1.77148e-15 2.4595e-30)
(0.5 -1.27636e-14 -2.56376e-31)
(0.5 -1.44713e-15 0)
(0.5 2.35295e-15 0)
(0.5 5.16152e-16 -1.11963e-30)
(0.5 -6.94247e-15 -3.32061e-31)
(0.5 -8.55855e-15 0)
(0.5 7.99782e-16 -1.24114e-30)
(0.5 -1.41651e-15 5.46232e-31)
(0.5 -2.43616e-16 0)
(0.5 -8.49861e-16 1.17792e-30)
(0.5 1.21622e-14 -8.98653e-31)
(0.5 -1.14049e-14 1.23874e-30)
(0.5 -9.13512e-16 0)
(0.5 1.3317e-15 2.59711e-30)
(0.5 -1.84112e-15 0)
(0.5 -1.21834e-15 -5.71248e-32)
(0.5 -1.243e-15 0)
(0.5 -2.03602e-14 -8.65459e-32)
(0.5 -4.62891e-16 -2.20164e-30)
(0.5 -8.30249e-15 1.92163e-30)
(0.5 9.14101e-15 0)
(0.5 1.12062e-14 -4.56267e-31)
(0.5 -2.67284e-14 0)
(0.5 -1.4287e-14 -7.45277e-31)
(0.5 7.2031e-15 1.15088e-30)
(0.5 1.33017e-14 -2.58888e-30)
(0.5 4.31613e-15 -2.10008e-30)
(0.5 8.46949e-15 -1.01673e-30)
(0.5 -6.58911e-15 9.34852e-31)
(0.5 -3.99235e-15 -1.72146e-30)
(0.5 9.44893e-15 -4.97007e-31)
(0.5 -3.45073e-15 -1.28923e-30)
(0.5 -2.05268e-15 2.47075e-30)
(0.5 3.95957e-17 0)
(0.5 2.69825e-15 -2.14333e-30)
(0.5 6.17552e-15 -2.6087e-30)
(0.5 -1.41604e-15 8.88864e-31)
(0.5 5.71762e-16 -1.16275e-30)
(0.5 1.13158e-15 -8.79229e-31)
(0.5 1.1997e-14 0)
(0.5 4.13916e-15 0)
(0.5 7.12259e-15 -1.57467e-30)
(0.5 9.37044e-15 9.55965e-31)
(0.5 5.85048e-15 -9.92271e-31)
(0.5 -2.03637e-15 5.0436e-31)
(0.5 -4.90136e-16 2.04237e-30)
(0.5 -3.12197e-15 -2.14776e-30)
(0.5 1.04984e-14 0)
(0.5 1.84805e-15 0)
(0.5 -5.88788e-16 6.78719e-32)
(0.5 3.96501e-15 1.53035e-32)
(0.5 3.71163e-15 7.5274e-32)
(0.5 -1.79563e-14 0)
(0.5 -1.93145e-15 2.46691e-33)
(0.5 -1.17285e-15 0)
(0.5 -1.62135e-15 3.67251e-31)
(0.5 9.07732e-16 -2.49417e-30)
(0.5 -1.51202e-15 9.38634e-31)
(0.5 2.04952e-15 -1.19489e-30)
(0.5 -9.13669e-16 0)
(0.5 4.02712e-15 2.95488e-31)
(0.5 1.99329e-15 6.44863e-31)
(0.5 7.70657e-15 -1.78183e-30)
(0.5 -5.92187e-16 5.29193e-31)
(0.5 -1.14418e-15 -5.4531e-31)
(0.5 1.37029e-15 -2.01606e-30)
(0.5 5.08863e-15 1.93678e-31)
(0.5 2.42278e-16 -4.79464e-31)
(0.5 -1.676e-15 5.406e-31)
(0.5 -3.45633e-15 -4.87957e-31)
(0.5 -4.12776e-16 -6.06895e-31)
(0.5 8.2512e-17 -2.06391e-30)
(0.5 7.82615e-15 1.0042e-30)
(0.5 2.59223e-16 1.72691e-30)
(0.5 -1.64945e-15 -2.65386e-30)
(0.5 -9.44891e-16 3.2886e-30)
(0.5 -3.92379e-15 -4.4233e-31)
(0.5 -1.42163e-14 -7.0482e-31)
(0.5 9.77208e-15 -2.21468e-30)
(0.5 8.98446e-15 -2.00944e-30)
(0.5 -4.46477e-15 -5.22804e-33)
(0.5 -2.44358e-14 0)
(0.5 -3.87986e-16 -2.466e-30)
(0.5 -1.00243e-14 1.18845e-30)
(0.5 -2.98678e-15 -5.031e-31)
(0.5 2.15352e-15 7.26788e-31)
(0.5 -1.08464e-14 -2.02551e-30)
(0.5 -9.56343e-15 -4.65791e-31)
(0.5 7.68493e-16 2.4972e-30)
(0.5 3.74554e-15 0)
(0.5 -5.70298e-16 -7.11552e-31)
(0.5 -1.5325e-14 5.08322e-31)
(0.5 -2.75759e-15 0)
(0.5 -9.13488e-15 3.69122e-30)
(0.5 2.24136e-17 -1.05548e-30)
(0.5 -8.1494e-16 5.24567e-31)
(0.5 -1.38971e-14 -6.49904e-31)
(0.5 -8.89763e-16 -8.78325e-31)
(0.5 1.42157e-14 0)
(0.5 -1.15352e-15 -2.45499e-30)
(0.5 -1.19199e-14 -8.05289e-32)
(0.5 3.30531e-15 2.52021e-30)
(0.5 3.5534e-15 1.79811e-30)
(0.5 3.64802e-16 2.95529e-31)
(0.5 -3.58131e-15 -1.12293e-30)
(0.5 1.13912e-14 -4.84022e-31)
(0.5 2.01762e-15 0)
(0.5 -2.16965e-15 0)
(0.5 -8.88139e-16 1.30053e-32)
(0.5 9.87843e-15 1.20179e-30)
(0.5 -2.2067e-14 -6.22457e-31)
(0.5 6.35324e-15 -1.58748e-30)
(0.5 9.90122e-15 0)
(0.5 -3.93867e-15 -3.58311e-32)
(0.5 -1.77613e-15 1.9933e-30)
(0.5 -2.29742e-15 -9.13091e-31)
(0.5 5.99541e-15 0)
(0.5 3.3852e-15 0)
(0.5 5.69982e-15 1.54538e-30)
(0.5 -1.99828e-15 4.88482e-31)
(0.5 -2.01966e-15 -4.94568e-31)
(0.5 -2.3796e-16 5.75404e-31)
(0.5 -4.82948e-15 5.23759e-31)
(0.5 -1.61389e-14 0)
(0.5 -6.80842e-15 0)
(0.5 1.08742e-14 -1.4691e-30)
(0.5 1.20899e-15 -4.59692e-30)
(0.5 1.80832e-15 1.95739e-30)
(0.5 -5.43421e-15 1.2149e-30)
(0.5 -3.50758e-15 2.78861e-31)
(0.5 9.04844e-16 -1.1003e-30)
(0.5 1.78378e-14 2.0024e-30)
(0.5 -1.53333e-14 3.78405e-31)
(0.5 -8.94438e-15 -3.89496e-31)
(0.5 -4.09113e-15 -1.2887e-30)
(0.5 -1.26514e-14 0)
(0.5 2.74068e-15 -5.15635e-30)
(0.5 -1.36705e-14 -6.06658e-31)
(0.5 4.02461e-15 1.91683e-30)
(0.5 -1.23618e-15 0)
(0.5 -2.36609e-15 -5.29935e-31)
(0.5 -1.56677e-15 0)
(0.5 -1.64412e-14 -1.10372e-30)
(0.5 1.62676e-14 -4.92107e-31)
(0.5 -1.5355e-15 -1.08473e-30)
(0.5 -4.01397e-16 0)
(0.5 7.28893e-16 0)
(0.5 -7.59198e-15 0)
(0.5 -8.00413e-15 -1.30693e-30)
(0.5 1.27246e-14 -2.31229e-30)
(0.5 4.31333e-15 1.42004e-30)
(0.5 -2.24261e-14 1.4713e-30)
(0.5 -1.80165e-14 0)
(0.5 1.46005e-14 -6.64932e-31)
(0.5 -1.71213e-16 1.17797e-30)
(0.5 -3.65592e-15 0)
(0.5 2.53776e-15 0)
(0.5 -2.01694e-15 -3.14349e-31)
(0.5 1.10608e-14 -1.23331e-30)
(0.5 1.58146e-14 0)
(0.5 -2.43779e-14 8.44601e-31)
(0.5 -2.39756e-15 1.13434e-30)
(0.5 -1.13719e-14 -3.76859e-32)
(0.5 -6.11647e-15 1.07295e-30)
(0.5 -1.5881e-15 1.06148e-30)
(0.5 -1.16942e-15 -7.01466e-31)
(0.5 9.96211e-15 1.40096e-31)
(0.5 1.0747e-14 1.21957e-30)
(0.5 8.61232e-15 8.84319e-31)
(0.5 2.27722e-15 0)
(0.5 1.03039e-14 2.1421e-31)
(0.5 -7.44643e-16 0)
(0.5 1.3308e-16 -1.3452e-30)
(0.5 5.12131e-15 0)
(0.5 2.15513e-15 1.10683e-30)
(0.5 2.6146e-15 4.07096e-31)
(0.5 -5.18076e-15 -2.59227e-30)
(0.5 5.85476e-16 -2.35043e-30)
(0.5 -7.74045e-15 -2.94512e-31)
(0.5 -3.43324e-15 7.85635e-31)
(0.5 8.60027e-15 0)
(0.5 5.7898e-16 6.25129e-31)
(0.5 4.42943e-15 -3.61956e-32)
(0.5 -7.20261e-16 0)
(0.5 9.25927e-16 -2.89472e-30)
(0.5 6.1153e-15 3.08648e-30)
(0.5 -5.9957e-15 3.48628e-32)
(0.5 5.56174e-15 1.00051e-31)
(0.5 -1.73639e-15 -2.94022e-31)
(0.5 1.03739e-15 0)
(0.5 -2.08354e-15 0)
(0.5 -5.51776e-16 -2.29152e-30)
(0.5 -4.46172e-15 -1.32361e-30)
(0.5 -7.92435e-16 0)
(0.5 -3.96055e-14 0)
(0.5 2.34408e-15 1.12441e-30)
(0.5 4.77827e-16 0)
(0.5 3.84095e-15 0)
(0.5 -2.11364e-14 8.67623e-31)
(0.5 1.94776e-14 -2.13043e-30)
(0.5 -8.21676e-16 0)
(0.5 -7.67534e-15 0)
(0.5 1.1546e-14 7.15718e-31)
(0.5 -1.40133e-14 5.50101e-33)
(0.5 -2.56295e-15 2.31827e-30)
(0.5 -8.00995e-15 -2.77215e-31)
(0.5 1.22172e-15 3.78736e-31)
(0.5 -2.37841e-14 5.26532e-31)
(0.5 1.27139e-15 -1.41505e-32)
(0.5 1.09284e-14 8.02001e-31)
(0.5 2.45446e-16 -2.1719e-30)
(0.5 -8.29982e-15 5.17572e-32)
(0.5 -1.42023e-14 3.45373e-31)
(0.5 5.24965e-16 0)
(0.5 -5.71301e-15 4.94337e-31)
(0.5 -2.18041e-16 5.79246e-31)
(0.5 -2.9349e-15 -2.9679e-30)
(0.5 -2.62892e-14 1.72641e-31)
(0.5 -7.16788e-15 0)
(0.5 1.10608e-14 0)
(0.5 -1.4813e-14 3.00421e-33)
(0.5 -2.27095e-15 4.12826e-32)
(0.5 1.45412e-15 -1.59074e-30)
(0.5 -1.32689e-15 -7.78998e-31)
(0.5 -5.19388e-15 -1.05744e-30)
(0.5 -1.95991e-15 -2.87772e-31)
(0.5 -1.90812e-16 2.34023e-33)
(0.5 -1.38737e-15 0)
(0.5 -2.73089e-15 -5.66727e-31)
(0.5 -8.15794e-15 0)
(0.5 -5.71314e-15 -1.17866e-30)
(0.5 1.7465e-17 -2.25955e-30)
(0.5 -1.6858e-15 -2.35781e-30)
(0.5 1.26142e-14 -9.08822e-31)
(0.5 1.92932e-14 1.64473e-30)
(0.5 -8.9937e-15 2.05712e-30)
(0.5 5.74083e-15 -4.53643e-31)
(0.5 6.02707e-15 9.76164e-31)
(0.5 -6.12164e-15 1.75751e-30)
(0.5 -3.10641e-15 1.74763e-30)
(0.5 -4.19493e-15 0)
(0.5 -2.45675e-14 1.53597e-30)
(0.5 -1.63209e-15 0)
(0.5 -9.83211e-15 0)
(0.5 -1.38946e-14 0)
(0.5 1.35095e-14 6.72074e-31)
(0.5 -2.03435e-15 3.61966e-31)
(0.5 2.3367e-15 7.12268e-32)
(0.5 -1.16182e-14 0)
(0.5 4.33408e-15 -1.84614e-30)
(0.5 3.4304e-15 2.07122e-30)
(0.5 5.32993e-15 0)
(0.5 -5.51576e-15 5.22106e-31)
(0.5 -1.11544e-14 5.60016e-31)
(0.5 -7.58331e-15 1.48732e-30)
(0.5 6.95339e-16 1.21275e-30)
(0.5 -9.12646e-15 -9.00486e-31)
(0.5 2.62973e-15 -1.86297e-30)
(0.5 8.34444e-17 -6.28906e-31)
(0.5 -1.00145e-14 1.23157e-30)
(0.5 4.4062e-15 -9.3004e-31)
(0.5 7.33484e-15 0)
(0.5 -1.24031e-14 8.94497e-31)
(0.5 -1.29669e-15 -1.86448e-30)
(0.5 -2.15457e-15 -3.32088e-30)
(0.5 1.74583e-15 0)
(0.5 1.93526e-14 0)
(0.5 -1.05859e-15 -1.18145e-30)
(0.5 -2.52849e-17 0)
(0.5 -9.02339e-16 -1.79433e-30)
(0.5 -1.4232e-14 1.55879e-31)
(0.5 -2.82202e-14 0)
(0.5 -4.31448e-15 -1.39952e-30)
(0.5 -4.95923e-16 1.25234e-30)
(0.5 -2.55649e-15 0)
(0.5 -6.73021e-15 -2.26951e-30)
(0.5 4.29446e-16 -5.47762e-31)
(0.5 3.6578e-15 -6.08131e-31)
(0.5 3.08411e-17 1.16438e-30)
(0.5 1.97409e-14 -1.93218e-30)
(0.5 -4.2797e-16 0)
(0.5 -2.17332e-16 -1.64661e-30)
(0.5 -1.6121e-16 -2.33086e-30)
(0.5 4.42411e-16 8.47577e-31)
(0.5 6.28528e-15 -5.40953e-34)
(0.5 8.65169e-16 -9.55947e-31)
(0.5 3.33618e-15 -9.83122e-31)
(0.5 -3.51416e-15 0)
(0.5 2.80076e-16 1.16225e-30)
(0.5 -7.20713e-15 -2.91251e-30)
(0.5 -1.51668e-15 1.11791e-30)
(0.5 1.97392e-14 -7.95722e-31)
(0.5 -4.48582e-15 -5.89315e-31)
(0.5 -3.2619e-14 1.61293e-31)
(0.5 -2.56893e-15 -3.71685e-32)
(0.5 -3.40006e-16 3.63178e-30)
(0.5 -2.12144e-15 0)
(0.5 4.671e-15 -7.26412e-31)
(0.5 -3.69687e-15 -2.11159e-30)
(0.5 1.68396e-15 -6.51596e-31)
(0.5 1.23804e-14 0)
(0.5 -4.92702e-15 2.43066e-30)
(0.5 6.18772e-16 0)
(0.5 -1.79501e-15 1.09014e-30)
(0.5 -5.65852e-15 2.28728e-31)
(0.5 1.03756e-16 1.9782e-30)
(0.5 1.00254e-15 0)
(0.5 2.29385e-15 0)
(0.5 1.79949e-14 -3.76687e-30)
(0.5 1.10604e-14 -1.04839e-30)
(0.5 8.09087e-16 1.0069e-30)
(0.5 1.32028e-14 1.19139e-30)
(0.5 -1.09242e-14 0)
(0.5 -9.18946e-15 -1.53248e-30)
(0.5 2.05525e-14 1.19645e-31)
(0.5 -5.21406e-16 2.09153e-30)
(0.5 3.25652e-15 -2.18988e-30)
(0.5 3.71409e-15 2.34853e-30)
(0.5 4.81303e-16 -1.10916e-30)
(0.5 -1.40538e-14 2.11572e-30)
(0.5 -1.7581e-14 -2.99491e-30)
(0.5 2.61272e-14 -6.86424e-34)
(0.5 3.36251e-15 -2.17604e-30)
(0.5 -3.44633e-15 -1.95111e-30)
(0.5 1.21348e-15 0)
(0.5 1.37456e-15 6.02166e-31)
(0.5 2.32196e-15 1.30277e-30)
(0.5 2.51662e-14 0)
(0.5 1.11991e-14 1.70381e-32)
(0.5 -2.59108e-14 0)
(0.5 1.25439e-14 1.38617e-30)
(0.5 -1.94162e-14 2.56345e-31)
(0.5 1.60557e-15 5.03732e-33)
(0.5 -2.1067e-14 -4.94078e-31)
(0.5 1.30906e-15 0)