/*--------------------------------*- C++ -*----------------------------------*\
  =========                 |
  \\      /  F ield         | OpenFOAM: The Open Source CFD Toolbox
   \\    /   O peration     | Website:  https://openfoam.org
    \\  /    A nd           | Version:  7
     \\/     M anipulation  |
\*---------------------------------------------------------------------------*/
FoamFile
{
    version     2.0;
    format      ascii;
    class       volScalarField;
    location    "2";
    object      p;
}
// * * * * * * * * * * * * * * * * * * * * * * * * * * * * * * * * * * * * * //

dimensions      [0 2 -2 0 0 0 0];

internalField   nonuniform List<scalar> 
65364
(
-1826.03
-4353.21
-2209.39
-3223.63
-6492.7
-5114.51
-3597.28
-1076.07
-1168.01
-2980.21
-1157.54
-3248.95
-4855.98
-4311.6
-5150.19
-6185.28
-3417.4
-1858.23
-4092.72
-3279.92
-4941.09
-1420.43
-4953.36
-6056.62
-3838.51
-3844.92
-1835.07
-2926.69
-5148.62
-2972.36
-626.757
-1164.4
-4321.77
-2224.18
-1610.45
-807.93
-1217.26
-4401.34
-2024.58
-6472.02
-4903.89
-2815.89
-4472.72
-2092.87
-2559.62
-1380.82
-2567.23
-3797.65
-5107.39
-3634.68
-3883.58
-4933.89
-3386.69
-5073.23
-4094.03
-1720.09
-3324.45
-4648.47
-5254.97
-3605.31
-5639.74
-4033.93
-4657.13
-2163.22
-1963.06
-2255.39
-4924.73
-4106.37
-5054.15
-1992.33
-3929.36
-4915.3
-1733.48
-2571.97
-1355.86
-5146.44
-4974.07
-2815.13
-4301.05
-2919.76
-3448.9
-748.928
-1497.99
-4510.05
-6480.61
-6347.05
-5166.25
-4361.6
-665.237
-3032.6
-5414.4
-493.091
-910.984
-5113.29
-4211.71
-425.583
-3393.68
-1611.32
-5101.87
-1160.97
-6312.44
-3955.29
-5304.33
-6451.34
-3181.87
-1563.57
-4543.32
-3805.4
-493.84
-5102.47
-2776.77
-4780.7
-1902.27
-3567.95
-4536.49
-4282.69
-3260.85
-3085.29
-1376.1
-4453.5
-3411.58
-5442.02
-801.497
-396.198
-2032.94
-5221.51
-3336.52
-3846.64
-4494.97
-2811.87
-2450.61
-3586.37
-1501.57
-2776.69
-2743.94
-4563.57
-4043.02
-2159.99
-4244.67
-3376.5
-3458.51
-3210.17
-1676.33
-1627.59
-1820.93
-3500.78
-5865.66
-4526.64
-2022.51
-526.071
-5393.99
-3650.78
-5127.04
-4017.83
-5424.88
-3218.94
-377.754
-3721.37
-4637.69
-6209.86
-2191.41
-79.4825
-151.696
-5123.2
-4046.37
-1393.7
-2646.31
-3618.16
-5228.93
-3595.58
-1827.81
-983.661
-2051.99
-3941.87
-4994.41
-1229.04
-4686.06
-215.239
-2323.08
-4473.66
-6417.87
-4342.43
-6029.35
-3043.3
-3200.36
-1748.57
-2051.52
-1738.82
-3335.7
-912.239
-434.227
-2264.11
-4976.21
-3861.42
-4893.38
-791.942
-1589.18
-1167.08
-3585.24
-2690.2
-4747.51
-4801.03
-4089.26
-2160.09
-1349.15
-4382.81
-3411.24
-1859.48
-3664.16
-3688.38
-3608.8
-850.682
-1601.58
-2257.77
-2753.96
-1501.67
-558.985
-678.439
-2383.09
-3313.84
-2593.42
-823.773
-2719.05
-448.569
-821.736
-4137.11
-4580.84
-2380.51
-3616.86
-848.215
-3405.57
-1740.21
-5223.49
-4321.61
-6354.05
-5347.38
-419.267
-4120.01
-754.73
-1885.31
-735.226
-744.853
-771.412
-1588.59
-706.426
-4413.47
-3417.9
-4828.03
-4735.2
-1156.47
-3971.21
-6285.18
-6401.16
-5377.09
-2322.95
-4227.78
-3648.47
-5322.16
-5065.39
-5389.79
-4092.13
-1924.52
-4752.73
-1053.57
-3369.81
-2790.28
-5105.71
-3684.26
-6187.95
-3862.16
-5483.48
-4576.25
-2918.38
-5737.14
-680.586
-4920.05
-2724.1
-698.858
-753.63
-2455.19
-1293.1
-1135.28
-2125.43
-3381.48
-5848.27
-2888.9
-4570.18
-2007.21
-2068.11
-4255.05
-5898.45
-3429.71
-2077.57
-3609.64
-5103.64
-2818.8
-3880.81
-4500.29
-483.87
-3375.91
-5850.04
-5974.77
-5309.44
-3365.43
-2024.52
-2022.89
-5448.58
-4825.52
-4669.86
-4702.41
-1256.42
-677.621
-4679.56
-2640.36
-1429.36
-2227.21
-3358.45
-4600.65
-2865.22
-2100.91
-1974
-2693.74
-5172.57
-3038.29
-1480.8
-2818.6
-812.522
-3142.84
-2652.45
-5041.74
-4508.32
-1353.65
-711.728
-958.536
-5076.53
-1637.39
-4250.25
-5194.91
-2264.74
-1171.83
-2768.76
-2507.42
-1416.81
-516.761
-2663.77
-4290.57
-1458.46
-4972.46
-3331.96
-576.767
0.96526
-3100.67
-4671.41
-6010.52
-1529.11
-4958.24
-860.083
-1816.14
-3493.67
-1664.08
-897.146
-1821.53
-3417.28
-4045.22
-2867.53
-2877.62
-3053.78
-4797
-1105.59
-579.403
-3374.86
-3157.06
-6406.5
-4208.48
-5399.71
-706.257
-2224.08
-4217.7
-1739.28
-2122.8
-3511.6
-1834.62
-3385.86
-716.325
-1310.78
-4547.36
-2732.64
-5126.11
-6235.72
-4004.95
-3297.25
-6213.34
-4247.61
-5184.43
-5210.1
-3333.71
-4196.61
-4928.89
-5084.07
-4773.03
-4415.62
-1429.11
-4921.4
-4258.04
-3885.06
-1818.27
-1744.86
-3171.59
-5114.94
-6039.63
-1835.39
-1684.18
-1700.96
-910.139
-1388.68
-683.182
-3471.17
-5851.86
-5374.82
-5625.62
-3986.74
-5038.05
-3648.33
-1873.02
-1268.23
-4610.7
-5119.39
-4437.12
-1631.76
-5025.57
-4043.51
-3601.9
-634.741
-2019.14
-2804.74
-4658.65
-848.22
-395.395
-6158.81
-5051.22
-4642.95
-4767.88
-1936.02
-4959.76
-2664.07
-3145.59
-3363.72
-4586.89
-2553.31
-2826.33
-1591.11
-6376.27
-4249.86
-1597.75
-866.703
-2978.03
-957.764
-495.954
-3343.84
-534.867
-3788.01
-3943.92
-5164.9
-3880.32
-2269.82
-2835.68
-1428.28
-2678.31
-3174.59
-5623.06
-4013.21
-1978.03
-3686.72
-392.787
-3424.8
-4058.6
-2164.74
-6041.15
-4039.72
-4542.73
-2357.07
-3864.95
-6200.54
-5103.03
-2967.18
-5681.67
-3779.23
-3848.76
-5958.94
-963.92
-4964.02
-4062.33
-2043.93
-3988.17
-5013.17
-5679.36
-3254.17
-5103.51
-2250.82
-869.119
-1867.17
-769.367
-4279.07
-6452.29
-5318.18
-4504.75
-6260.13
-4041.87
-5136.61
-5063.69
-6444.01
-5232.01
-462.115
-5065.37
-5884.61
-5061.9
-5091.8
-4926.17
-2709.72
-1000.52
-3748.56
-1402.27
-2728.45
-5187.41
-4767.75
-5116.39
-4238.24
-3604.78
-3645.62
-441.186
-5014.36
-2444.27
-2711.7
-1455.49
-2381.28
-4642.5
-687.225
-2694.56
-4834.82
-1547.64
-1472.7
-2025.15
-942.207
-2974.89
-666.057
-2686.6
-2727.08
-1411.5
-1942.9
-1388.78
-3303.06
-6389.23
-4709.76
-4674.2
-538.352
-998.687
-5341.47
-4628.81
-1337.84
-5406.46
-3533.26
-2162.01
-4082.58
-5101.65
-2506.21
-2931.09
-2963.88
-2973.08
-5109.97
-6236.84
-5241.02
-3431.53
-1946.31
-5933.75
-4645.61
-2640.84
-5047.28
-6420.98
-5362.95
-1952.82
-1204.11
-6334.36
-4004
-3209.93
-4097.38
-546.898
-666.968
-1234.03
-4549.71
-5103.99
-5038.66
-5098.6
-1233.4
-135.998
-247.342
-3675.55
-770.445
-5104.88
-6349.36
-4191.03
-234.259
-2898.94
-5736.81
-2461.12
-1488.07
-797.987
-3949.25
-3584.16
-1852.21
-1636.88
-6114.2
-4364.21
-2962.11
-4846.87
-2393.85
-2048.18
-600.994
-4671.27
-6325.88
-4020.63
-252.861
-132.048
-1243.73
-3951.43
-2616.29
-5009.13
-1654.45
-5066.52
-2980.66
-4830.47
-4421.59
-1946.07
-3491.57
-2835.02
-5659.14
-5082.9
-601.092
-335.199
-632.674
-4736.35
-2825.93
-4547.14
-4062.87
-2929.38
-4131.35
-2268.54
-2078.07
-2925.4
-3016.13
-6063.28
-4732.68
-4107.61
-822.461
-452.69
-974.359
-5193.23
-4781.46
-6435.48
-3868.62
-5944.31
-1561.75
-3562.71
-2479.08
-441.168
-815.618
-4252.36
-2137.71
-4142.07
-3310.51
-2698.51
-4394.28
-4881.45
-5462.89
-333.404
-1596.55
-3343.02
-2955.65
-4280.1
-1114.8
-5105.13
-4733.91
-5053.11
-5104.41
-3995.2
-5077.66
-806.699
-2654.53
-4801.44
-6506.18
-1815.43
-735.417
-333.739
-4160.58
-2292.98
-1553.63
-713.661
-1750.81
-3199.61
-740.062
-792.794
-3047.81
-1613.93
-763.354
-962.341
-667.456
-5112.7
-3510.91
-1799.78
-5241.17
-4535.18
-6479.04
-713.406
-789.953
-2006.27
-1974.63
-3980.41
-5232.34
-3070.12
-3820.2
-2266.84
-4985.66
-3104.83
-3140.92
-5357.8
-4855.7
-1784.01
-950.331
-1741.39
-2406.4
-3239.08
-1476.95
-2824.44
-562.399
-3517.82
-1792.8
-3486.92
-496.4
-2414.42
-4094.97
-1770.77
-3403.78
-2103.63
-4194.37
-2889.29
-2543.98
-3593.33
-835.396
-5026.49
-1659.8
-6421.9
-4313.31
-805.205
-2988.07
-1636.18
-3168.22
-1446.78
-1714.87
-3286.42
-3387.99
-4945.93
-2908.44
-1549.78
-4733.47
-4998.34
-3744
-4381.7
-2212.49
-3722.84
-1879.98
-4472.57
-6421.57
-2435.36
-286.371
-4118.04
-2962.58
-434.408
-784.543
-2798.62
-4669.9
-2068.15
-3442.33
-6141.47
-3745.37
-598.923
-4181.43
-2459.39
-2083.29
-1118.58
-4244.19
-3485.86
-1973.76
-4601.93
-2145.4
-4834
-2265.59
-4202.77
-2555.2
-1104.28
-1109.69
-2519.99
-4403.33
-1465.26
-1350.88
-5669.01
-4768.81
-6372.26
-4734.41
-1188.62
-4557.79
-3122.18
-4278.09
-6379.42
-5130.59
-6271.31
-5337.99
-3296.25
-1388.68
-2595.2
-5101.95
-5823.85
-5075.36
-967.304
-6146.37
-5051.75
-3250.09
-4927.06
-4325.44
-2482.8
-1660.05
-897.67
-4117.79
-1089.41
-902.491
-2288.46
-4161.22
-3412.2
-1289.15
-4405.97
-1845.02
-3394.27
-4584.92
-6266.78
-6451.62
-5154.11
-4705.92
-5107.9
-5748.15
-5202.7
-492.245
-3768.76
-5735.22
-84.0806
-2298.31
-4893.67
-1668.67
-3082.46
-5317.48
-3848.87
-787.046
-1267.07
-1318.83
-2421.21
-4107.99
-4731.75
-3112.57
-598.454
-3759.56
-4429.05
-3517.81
-1292.66
-2505.84
-574.139
-1938.04
-1758.15
-6206.76
-4218.05
-5275.19
-4241.46
-1841.18
-940.053
-3238.68
-6154.27
-5287.43
-3517.83
-6463.6
-4946.29
-1509
-803.277
-2091.72
-2224.24
-4817.88
-3698.51
-3365.12
-4642.49
-6488.05
-3669.13
-4251.81
-6265.61
-1611.96
-870.463
-3472.81
-1629.3
-3114.33
-3264.2
-4657.25
-2801.23
-6171.58
-5295.98
-4369.6
-6097.67
-3528.7
-3206.92
-6157.72
-4408.03
-1988.71
-1486.04
-5023.48
-5700.02
-658.283
-2061.8
-4123.95
-4191.3
-5034.98
-5129.55
-3216.34
-1702.8
-3940.18
-5464.75
-4604.91
-1572.95
-2963.89
-6199.52
-5220.97
-1396.66
-5297.45
-3893.95
-1459.62
-1972.09
-4707.93
-2583.12
-4515.66
-5376.57
-5254.75
-5520.43
-2944.31
-3071.32
-5642.05
-4648.6
-765.561
-417.45
-4949.87
-2134.34
-1873.87
-4931.45
-6388.46
-4145.51
-1131.27
-606.551
-5323.87
-2817.98
-2424
-1285.3
-3606.52
-4757.24
-2143.92
-1966.59
-3511.54
-1864.78
-4310.84
-5145.73
-2716.82
-2661.5
-3372.75
-6018.85
-4112.29
-4740.13
-1250.07
-685.509
-4938.58
-4873.99
-874.844
-470.234
-4002.6
-5970.84
-3289.79
-997.051
-531.458
-3528.8
-6017.61
-4157.58
-3337.25
-1596.68
-442.059
-1749.08
-3856.1
-6010.32
-4228.83
-3350.79
-1399.54
-5076.35
-749.358
-4702.77
-2434.48
-3200.97
-5140.67
-5106.79
-1468.65
-1922.26
-4127.73
-3675.75
-1480
-1352.18
-617.263
-5177.29
-2746.3
-5103.5
-5486.09
-3730.41
-831.544
-714.119
-5037.31
-4613.47
-3790.77
-5687.85
-5282.49
-4517.2
-2259.1
-4446.96
-3185.74
-3873.54
-2038.43
-4553.44
-6179.22
-5181.39
-6477.1
-4172.34
-2056.57
-2820.09
-572.504
-1949.77
-1488.9
-3360.3
-2272.85
-3756.34
-5269.75
-701.919
-4729.49
-614.854
-2005.4
-2494.48
-1318.88
-4258.46
-2379.69
-5799.14
-3854.17
-444.284
-259.202
-4825.77
-2934.81
-4814.67
-2516.52
-4392.42
-4958.64
-2996.84
-5179.79
-646.167
-445.066
-823.385
-954.665
-1822.08
-4429.14
-1697.9
-1435.53
-1415.79
-3037.32
-631.133
-2809.82
-4007.7
-360.559
-2894.96
-4493.31
-5808.43
-3987.83
-4329.95
-5803.75
-5972.21
-4238.07
-4335.84
-3958.88
-772.105
-1419.44
-1340.95
-3816.71
-1939.07
-4988.23
-3374.01
-5902.43
-767.739
-3774.28
-2667.3
-1646.04
-5537.09
-1512.73
-4432.05
-2748.84
-947.455
-529.167
-710.103
-4817.17
-957.964
-5064.64
-2203.4
-2622.29
-3224.32
-1950.24
-3825.14
-5714.54
-4914.76
-1934.69
-1029.37
-3477
-5113.44
-5175.9
-2296.01
-3642.66
-732.75
-372.96
-1306.41
-5102.51
-1483.57
-790.041
-3876.36
-3301.01
-660.194
-2015.79
-4031.93
-4130.96
-2076.16
-3266.49
-399.868
-2241.16
-4403.77
-3499.15
-4488.69
-2693.3
-2940.27
-692.559
-1231.32
-2311.09
-820.61
-1578.91
-4239.3
-3533.97
-907.49
-504.961
-1991.28
-1052.62
-4284.91
-6275.6
-2129.82
-1093.57
-2063.87
-4122.05
-5102.81
-809.142
-1501.15
-372.815
-4909.44
-6491.65
-3005.23
-3310.82
-1226.01
-3723.84
-2101.9
-1901.62
-4118.3
-3524.23
-5337.88
-2899.69
-1503.48
-4501.63
-4946.61
-5330.04
-4965.72
-1092.74
-2063.55
-1984.39
-477.297
-6277.38
-5314.57
-1285.24
-2020.35
-3201.18
-1992.7
-4052.85
-3324.2
-1717.24
-3518.19
-5299.54
-3469.27
-4077.52
-1012.92
-2776.04
-165.442
-2712.86
-4424.58
-6014.86
-5252.53
-3054.51
-4392.72
-544.694
-4221.71
-2125.83
-2979.5
-2902.88
-1763.37
-2690.45
-2322.44
-3209.93
-5667.36
-1972.81
-1966.37
-3707.26
-4725.68
-3808.18
-4875.66
-2783.07
-4802.36
-5771.47
-5300.35
-1913.68
-3737.96
-3901.74
-2063.03
-2852.04
-1542.34
-2827.34
-5103.97
-3360.15
-3041.04
-5132.69
-4263.5
-711.903
-1475.1
-4927.69
-3611.12
-3622.1
-5221.82
-3868.15
-4515.44
-6103.64
-4095.2
-4443.87
-6284.14
-1681.14
-3213.87
-2639.65
-4857.63
-5329.27
-6048.48
-5130.56
-3683.86
-2858.11
-4551.77
-6250.37
-2208.66
-5367.28
-1855.83
-2822
-3123.22
-5244.44
-3061.25
-4983.31
-5152.93
-6167.34
-2440.55
-1295.66
-2634.39
-5103.35
-5552.59
-3359.86
-4725.13
-5698.67
-2850.15
-4302.23
-1123.53
-4797.75
-1629.3
-5128.7
-2548.93
-4225.07
-5306.74
-4706.17
-6252.6
-5199.56
-5752.2
-5193.42
-1766.75
-1922.67
-5201.74
-3495.18
-1806.34
-4944.18
-267.077
-496.956
-4266.32
-5710.42
-3403.38
-3571.97
-5132.55
-3766.11
-4205.57
-3354.33
-2826.39
-2126.01
-4054.2
-1063.78
-4058.89
-3462.45
-1517.79
-4925.81
-2509.98
-5399.74
-4909.75
-4580.19
-5879.64
-1691.22
-5235.57
-4199.58
-4251.57
-4802.26
-2750.54
-4367.49
-2570.79
-4797.04
-3077
-508.172
-3536.31
-4696.61
-5073.98
-3660.2
-1866.32
-4444.82
-2876.9
-2734.07
-6188.7
-5246.01
-2105.01
-5261.26
-2793.42
-6308.68
-3948.88
-1510.59
-5150.01
-5165.9
-4588.05
-6485.8
-1372.63
-2546.22
-2004.79
-336.014
-633.169
-5116.98
-2959.11
-1743.23
-760.875
-2372.9
-4565.79
-2455.63
-4006.57
-2190.19
-1155.24
-5765.66
-5017.4
-1615.3
-2060.48
-5295.41
-5402.68
-4446.03
-5424.18
-2553.08
-2763.2
-522.656
-974.271
-2591.6
-2941.21
-1422.63
-262.442
-452.841
-5253.69
-4436.14
-1966.81
-1051.37
-5533.82
-4990.85
-4385.06
-808.673
-4636.82
-2330.31
-188.057
-391.961
-1494.81
-809.808
-3862.92
-580.912
-1068.07
-178.424
-2636.33
-1431.56
-305.705
-4277.79
-597.595
-1108.28
-1906.06
-2025.86
-3686.93
-3560.79
-3809.63
-5103.69
-1986.09
-3894
-2097.32
-3647.29
-3726.67
-3483.61
-5986.41
-2075.94
-1701.01
-5104.42
-1664.86
-5063.55
-4408.26
-5656.91
-725.343
-5021.48
-2504.1
-4728.01
-4712.48
-4264.29
-5102.79
-5103.05
-4273.72
-3829.87
-4954.64
-2556.07
-1433.31
-3526.4
-2420.97
-4730.28
-5160.72
-4431.49
-3788.53
-4791.67
-1703.98
-2246.41
-4920.92
-4072.53
-377.674
-1386.99
-2610.12
-4319.1
-4198.92
-609.305
-4016.68
-748.693
-4843.33
-3740.64
-2464.3
-4637.03
-2326.55
-5005.49
-3019.73
-1985.85
-1062.68
-2545.46
-4002.29
-2450.3
-5203.89
-193.484
-2500.62
-1327.91
-2331.66
-1668.94
-1927.34
-2071.42
-5696.62
-3419.5
-1813.43
-3724.34
-937.217
-1944.68
-5202.79
-2110.59
-4084.52
-2063.6
-3932.52
-5243.96
-2977.54
-5193.73
-2418.57
-3251.31
-4195.41
-4533.17
-6435.96
-1469.57
-2792.64
-3499.07
-3505.6
-1818.08
-3136.34
-4632.86
-310.166
-552.118
-5813.92
-3892.67
-1360.67
-3323.98
-5094.38
-527.026
-2801.34
-242.477
-684.914
-1472.53
-4042.51
-3426.1
-5894.14
-1066.69
-556.076
-1338.15
-4284.21
-2368.37
-3034.18
-2068.16
-5072.89
-3068.3
-3055.66
-5104.52
-704.69
-2793.05
-3211.47
-6250.42
-5329.66
-1089.62
-1950.26
-1823.13
-5445.4
-3891.12
-882.973
-4258.86
-2557.86
-1871.81
-1447.95
-1138.41
-5104.82
-285.138
-961.891
-510.192
-689.456
-3460.34
-3119.62
-4422.23
-6527.51
-5025.36
-3720.02
-4969.92
-3661.69
-358.193
-416.295
-765.3
-2628.66
-5588.25
-4469.61
-6166.38
-3798.1
-5381.88
-4102.19
-5096.04
-2426.65
-2738.14
-4922.33
-2080.14
-1053.7
-2600.09
-2382.7
-3645.48
-1866.74
-4521.12
-1205.67
-3314.31
-1722.12
-2606.54
-2812.98
-3948.91
-2328.67
-4141.76
-4062.6
-2489.3
-4165.76
-893.172
-1308.36
-2427.71
-1769.28
-1160.61
-2448.5
-4146.36
-3107.68
-1999.52
-1773.87
-3749.22
-270.3
-1898.39
-1001.05
-1911.97
-707.533
-1694.11
-878.227
-5084.3
-2335.49
-1233.52
-2056.95
-3019.92
-6047.4
-3752.48
-2611.2
-3825.45
-1960.35
-3016.05
-6433.71
-4260.12
-1264.06
-664.909
-2569.4
-2225.11
-3766.11
-4053.06
-3145.74
-1826.55
-296.48
-886.525
-337.15
-3422.38
-1815.12
-3176.95
-2200.12
-1175.46
-5272.29
-799.545
-2241.53
-6464.07
-4631.77
-5065.94
-3393.66
-2536.63
-462.943
-247.326
-6430.81
-4789.35
-2067.03
-2448.23
-5129.38
-2736.16
-578.211
-1061.07
-2738.14
-5573.42
-3082.86
-5068.07
-2973.39
-2655.36
-4599.71
-3810.57
-4696.09
-2411.87
-3907.79
-4952.09
-3888.78
-5299.4
-4156.68
-5021.72
-5113.31
-5105.77
-400.292
-1436.32
-914.951
-1710.69
-3234.1
-5316.9
-825.985
-2069.03
-2334.64
-4517.46
-4998.02
-5241.78
-2942.32
-4386.33
-4047.47
-5227.54
-3043.62
-4972.5
-3316.58
-4403.91
-3193.41
-5097.38
-4054.13
-2433.12
-4837.21
-2763.71
-1785.95
-2619.53
-4972.35
-5101.46
-3662.66
-5258.96
-4644.83
-2815.19
-1223.79
-1683.34
-1515.18
-2893.87
-4155.99
-1632.7
-1306.58
-4805.05
-2956.19
-4780.31
-4964.53
-5317.58
-3302.34
-1289.6
-5214.15
-761.802
-1405.92
-5098.49
-4590.6
-6254
-5337.19
-3078.5
-591.72
-1086.69
-2814.57
-3639.92
-4746.21
-6268.23
-5216.47
-2913.5
-2674.48
-2369.57
-4654.31
-2184.75
-2008.06
-4938.37
-3656.22
-1561.76
-4570.84
-2479.47
-2822.12
-1576.2
-3344.58
-5869.82
-1405.92
-1001.63
-6225.41
-4198.9
-531.878
-3118.91
-5435.51
-5017.45
-3577.44
-5487.52
-3483.99
-1820
-856.528
-2572.61
-4694.15
-3235.67
-1257.15
-5298.06
-3893.45
-4131.24
-6048.31
-3855.67
-5105.33
-2178.7
-4166.72
-5434.04
-4938.98
-866.644
-2910.49
-3729.61
-2723.96
-1864.27
-5105.22
-3691.52
-1906.99
-3152.82
-1589.83
-5335.32
-4081.74
-1482.64
-3649.11
-3722.91
-4873.24
-3156.7
-5374.34
-931.36
-4994.58
-3241.04
-5104.03
-1767.79
-4586.42
-2791.08
-3933.8
-128.005
-77.1529
-1313.92
-2318.16
-3929.86
-3043.74
-619.859
-347.337
-838.969
-2131.73
-3934.27
-2543.07
-4270.58
-3194.89
-3151.84
-5713.28
-3727.07
-4605.78
-5152.8
-969.476
-6320.31
-4005.42
-4403.99
-3942.98
-1438.28
-711.576
-834.903
-6366.08
-4060.29
-4696.04
-4377.98
-2051.76
-6066.78
-5173.81
-1319.39
-2523.45
-4418.09
-2906.73
-5349.39
-3479.24
-6061.19
-5103.29
-1364.4
-5306.9
-2361.09
-4843.01
-2747.47
-2201.18
-669.884
-1243.06
-4865.97
-3088.05
-1011.48
-547.899
-4329.47
-5764.74
-2257.77
-4455.55
-315.567
-176.852
-3416
-1762.6
-807.918
-5105.08
-1691.43
-890.733
-4784.86
-3864.12
-5345.32
-4278.05
-2253.79
-3453.51
-5578.71
-5538.02
-3546.78
-1859.6
-2111.62
-1387.03
-3272.81
-2182.56
-3807.88
-5772.07
-4087.66
-6219.57
-4190.63
-4254.85
-1903.41
-3680.05
-4457.88
-1590.78
-1144
-1819.09
-4152.4
-3012
-3628.78
-1857.46
-1352.57
-3667.28
-5735.29
-1281.19
-6139.21
-3739.15
-661.717
-2582.79
-4989.21
-248.099
-5181.91
-5252.67
-3509.91
-2090.98
-4480.42
-2450.64
-4450.26
-412.314
-781.541
-2184.9
-4169.74
-5105.08
-509.815
-4896.79
-3849.04
-2811.32
-3848.95
-5103.49
-5877.16
-5221.61
-2700.75
-1704.46
-885.005
-2743.93
-5270.41
-1299.45
-886.137
-3340.1
-6430.66
-4769.76
-3756.69
-3389.21
-1915.64
-5068.77
-5047.38
-2230.03
-2674.21
-3707.26
-2153.55
-841.603
-1561.93
-1663.39
-773.156
-2309.73
-3643.54
-4076.15
-86.9433
-171.284
-1737.8
-5047.99
-2640.72
-1898.3
-2144.52
-4476.16
-315.852
-562.488
-5105.23
-5045.88
-6272.02
-1465.15
-120.886
-3563.18
-4657.58
-5673.41
-4189.79
-4135.96
-4293.16
-4100.79
-2462.82
-928.288
-2397.7
-937.713
-5097.89
-5955.53
-3558.48
-5100.01
-3191.1
-5608.76
-3703.41
-4289.36
-4527.49
-348.523
-5062.54
-1950.34
-6516.24
-5028.82
-2173.6
-4257.4
-4729.38
-5030.25
-3430.46
-2713.08
-527.551
-4084.13
-2249.1
-4062.05
-2759.63
-2282.28
-5087.2
-2423.86
-2999.86
-1092.41
-2549.69
-3059.28
-5558.73
-4518.44
-1717.75
-1240.94
-368.668
-4094.38
-1352.78
-2165.02
-1853.28
-3665.27
-4045.4
-3781.16
-2873.94
-2241.32
-4276.77
-3663.59
-5325.31
-5154.54
-2717.8
-4137.9
-3495.29
-1769.29
-3085.94
-3860.59
-4247.3
-2944.39
-5041.08
-4193.74
-4942.51
-1902.29
-4198.14
-2148.44
-3623.88
-6146.29
-4816.5
-2229.31
-3336.39
-1666.94
-3495.62
-3526.1
-3216.29
-1704.36
-5109.29
-4832.05
-3839.32
-1929.73
-2262.08
-4640.19
-2478.32
-6224.56
-4662.02
-4401.42
-4851.59
-1241.09
-2500.37
-4408.9
-3760.64
-2417.16
-209.164
-5044.69
-4490.02
-4911.4
-2812.31
-4549.89
-1348.36
-2552.98
-3726.59
-677.022
-902.593
-1381.9
-404.695
-3607.74
-282.263
-3537.88
-1085.5
-2056.46
-2452.06
-1300.96
-1726.26
-5123.38
-1842.1
-4424.9
-2315.76
-874.443
-5542.88
-3371.26
-814.784
-4963.49
-1199.34
-649.03
-3155.32
-1166.03
-5053.8
-4741.57
-5360.23
-4628.51
-2378.22
-2816.85
-4681.49
-6300.83
-753.579
-2694.73
-4161.52
-2087.39
-502.959
-5104.07
-4576.8
-5702.68
-4555.04
-4966.03
-3775.74
-1659.74
-3854.85
-2578.27
-4695.94
-2861.24
-835.042
-3762.41
-434.689
-6442.88
-4265.05
-1143.58
-2127.94
-4132.43
-3862.99
-4936.45
-6520.01
-354.421
-4256.26
-2610.41
-351.178
-4910.99
-2273.25
-5018.15
-6350.8
-4130.81
-5105.69
-3651.42
-3411.59
-1813.93
-3803.32
-1291.86
-5105.55
-1869.21
-5347.25
-2652.82
-1396.02
-1189.78
-6128.24
-4828.9
-2115.01
-1133.9
-623.093
-5726.43
-4875.13
-3865.86
-5060.47
-3142.83
-2170.1
-4122.3
-2185.98
-1148.1
-1548.06
-2561.6
-4689.14
-1616.25
-3345.05
-5864.36
-2557.27
-2800.57
-4805.78
-5102.06
-5332.17
-1885.78
-2928.61
-4329.57
-712.138
-3392.98
-3181.85
-5175.37
-1733.81
-5781.15
-3598.02
-3047.13
-6065.17
-701.558
-1409.01
-4236
-350.134
-654.629
-4069.24
-2379.52
-2243.97
-4069.14
-5223.27
-1489.91
-2835.15
-5103.67
-1966.63
-2115.5
-4443.51
-2338.23
-4794.63
-647.255
-1199.64
-5165.28
-1276.37
-5003.75
-5605.66
-5049.31
-5501.36
-2198.37
-4636.84
-2392.87
-1422.71
-5671.2
-3656.26
-1211.79
-5328.69
-3781.51
-2139.87
-2180.45
-2988.03
-1107.74
-3463.04
-5041.35
-3126.56
-5106
-2163.1
-3562.37
-5215.16
-3375.44
-4020.21
-2769.98
-1012.36
-1265.95
-995.148
-2012.08
-1830.02
-3689.85
-4938.39
-3076.47
-5139.68
-3513.16
-651.217
-4246.29
-6537.46
-4740.98
-3599.66
-2903.27
-3731.17
-4991.28
-3443.89
-4151.65
-3376.6
-1247.48
-1055.54
-2806.19
-1823.36
-4200.37
-2025.85
-972.219
-1681.05
-3670.62
-2126.97
-48.9098
-819.973
-5056.71
-3071.08
-1943.2
-3828.12
-1271.6
-2402.3
-3919.78
-3521.22
-6017.35
-3730.19
-1619.71
-3949.57
-1118.08
-1778.62
-1666.89
-3259.8
-1827.83
-3157.28
-5011.89
-2613.93
-3290.73
-1698.75
-4297.55
-4380.81
-6007.44
-3405.91
-1754.03
-2893.4
-4522.77
-4130.19
-4272.92
-1242.73
-2368.59
-1337.87
-2522.61
-3727.75
-5815.54
-4841.99
-4609.22
-2295.56
-5104.31
-1790.79
-2489.6
-3486.78
-5118.19
-1381.58
-4578.29
-6279.61
-3073.33
-3617.28
-1842.91
-2134.33
-3645.34
-626.431
-429.582
-3810.99
-4399.88
-4053.8
-3137.06
-5105.55
-3948.1
-5886.89
-952.574
-5119.99
-2059.85
-2931.63
-1569.14
-4552.89
-5657.24
-3575.88
-976.127
-3665.58
-2857.43
-255.122
-2307.29
-1228.32
-5337.74
-2459.28
-4157.73
-1458.8
-1699.36
-2193.59
-1170.7
-1484.3
-2729.26
-4701.45
-3672.39
-1887.27
-3565.64
-5165.87
-2078.23
-1091.13
-4943.83
-2131.48
-3800.9
-2199.87
-6501.94
-4755.08
-616.223
-2818.93
-6234.94
-4213.87
-5494.62
-4979.62
-5190.85
-1025.1
-6006.47
-5369.73
-1765.62
-2911.89
-3630.45
-5132.85
-3421.22
-1590.17
-772.896
-2423.71
-6417.97
-5398.19
-2984.97
-4147.79
-673.404
-5102.2
-2264.72
-4313.51
-6459.65
-5116.52
-1733.95
-3296.77
-4219.51
-3406.37
-1353.49
-4203.89
-3502.05
-2821.75
-5941.86
-3582.91
-2651.55
-2969.37
-1996.29
-4607.77
-5453.55
-5148.63
-3609.33
-1929.33
-3268.25
-4468.17
-1294.28
-2139.79
-4230.63
-194.72
-114.339
-2048.78
-1980.4
-6242.78
-4728.8
-2501.47
-1886.72
-4400.56
-4176.22
-5363.18
-3646.68
-5751.65
-5346.81
-444.298
-3077.73
-4073.65
-4645.99
-1241.52
-3990.65
-5125.43
-4044.62
-2371.4
-4115.18
-5022.38
-4089.53
-5180.09
-2993.1
-1141.58
-5505.29
-3614.02
-863.151
-1611.91
-1049.37
-1968.87
-5032.84
-6317.14
-4613.72
-2467.84
-5427.38
-2962.96
-3617.95
-2686.58
-4101.2
-5580.79
-917.005
-270.483
-5271.07
-1834.89
-5486.06
-3372.3
-3790.06
-2179.84
-2343.98
-4557.19
-2825.49
-4629.9
-4074.24
-5148.77
-4980.92
-3871.61
-2091.24
-5603.07
-3656.08
-5105.82
-5114.08
-1757.62
-3383.88
-3127.77
-3347.32
-5880.32
-5150.63
-2139.61
-2803.44
-1030.35
-4572.26
-5853.35
-697.686
-1343.92
-678.862
-1929.5
-4382.21
-857.739
-2625.6
-3492.04
-3847.32
-4124.52
-4576.55
-2520.19
-1995.8
-4106.88
-3154.42
-1097.49
-498.299
-4257.65
-6001.66
-4715.7
-2497.6
-4265.58
-1011.63
-1608.09
-3118.51
-1141.31
-1795.4
-4176.39
-5041.84
-3778.4
-5182.09
-3182.58
-4137.64
-2306.07
-3276.03
-2674.99
-886.811
-3404.91
-4130.31
-2721.68
-4961
-4185.38
-4514.84
-3896.65
-3376.66
-4983.46
-2031.67
-5103.18
-5977.55
-1832.37
-1362.17
-2581.98
-1424.7
-769.178
-3062.56
-5450.96
-4361.85
-3618.33
-1446.49
-724.308
-3931.37
-5391.07
-6272.52
-5101.14
-4682.24
-2564.7
-4641.48
-2535.35
-739.233
-4756.18
-2002.7
-2574.76
-3771.58
-3166.96
-3352.6
-1752.94
-2482.56
-4946.76
-4397.5
-2892.92
-1145.84
-923.247
-1874.07
-3280.67
-3146.08
-5488.05
-1855.56
-3379.45
-4685.75
-6433.42
-4032.26
-691.383
-5349.24
-6504.78
-4763.9
-2098.76
-1122.51
-4964.93
-2930.05
-5106.7
-4539.56
-4722.73
-3770.38
-3718.46
-218.301
-5431.17
-5147.87
-1840.63
-3381.9
-1436.78
-1917.99
-927.599
-5905.92
-3545.69
-1808.41
-5628.03
-1460.94
-2778.93
-4113.9
-1213.11
-852.273
-1241.11
-2353.45
-847.377
-765.279
-1193.19
-2256.48
-3834.71
-1553.54
-2915.07
-4414.62
-2578.1
-4798.07
-755.917
-4388.83
-2397.47
-705.286
-2597.95
-6187.73
-4451.4
-3203.73
-889.787
-1723.03
-3338.81
-2075.05
-4719.45
-369.956
-813.33
-3522.79
-1072.52
-470.756
-417.777
-5081.63
-3198.58
-5600.72
-3256.55
-1838.8
-6071.03
-2433.79
-4581.07
-5362.66
-3502.65
-6025
-2752.96
-5103.37
-2305.93
-1222.87
-2979.78
-3362.4
-3124.31
-5091.52
-2973.65
-5342.52
-2773.81
-5085.5
-3786.13
-1062.23
-3719.69
-3024.52
-1592.92
-5052.22
-2236.3
-4666.34
-5661.62
-3366.59
-896.429
-492.488
-5964
-4422.53
-3980.01
-3574.49
-796.855
-554.239
-1163.48
-483.235
-3156.38
-4228.99
-2175.05
-1696.61
-4143.33
-2430.05
-1569.04
-2034.3
-1345.32
-3150.41
-4520.69
-2982.02
-4950.26
-5159.11
-3266.13
-1702.73
-5036.26
-2714.54
-6248.91
-5382.11
-4409.68
-6236.8
-5168.03
-5665.52
-1218.02
-5484.63
-1026.8
-4330.87
-3319.2
-2046.49
-2467.73
-6335.86
-5196.12
-1158.68
-2908.84
-5096.06
-2686
-2108.99
-1025.69
-1018.76
-2145
-1146.84
-4028.79
-2011.58
-5429.44
-5055.93
-1315.86
-3535.23
-2979.62
-1567.71
-545.751
-4810.09
-1659.13
-3217.35
-2767.56
-5097.38
-2985.8
-4085.6
-4774.3
-3948.95
-6262.77
-2837.85
-3623.94
-1417.49
-2634.12
-4092.24
-5663.34
-3417.18
-5495.84
-3258.41
-3437.02
-2905.51
-4946.77
-1466.41
-6367.67
-6332.08
-4171.65
-2008.45
-1056.71
-3121.56
-4048.99
-5416.18
-3731.14
-2008.65
-5517.07
-4882.13
-1281.69
-2146.79
-3737.08
-4555.07
-576.618
-2050.06
-506.439
-5939.64
-2069.26
-3389.23
-1484.91
-1636.46
-2611.08
-902.696
-2445.66
-3958.51
-4451.37
-6286.25
-2635.22
-5162.57
-1555.23
-833.863
-2313.07
-2150.89
-2377.85
-4641.61
-2985.34
-4059.78
-6362.34
-1355.04
-5848.66
-3441.1
-4178.62
-4316.61
-4008.87
-3313.83
-3627.65
-3237.84
-1697.4
-4555.52
-2063.99
-1185.06
-888.971
-1546.04
-2955.28
-1993.26
-3796.16
-4874.53
-773.16
-680.231
-682.64
-717.781
-4123.94
-1516.57
-816.696
-3520.28
-5494.55
-3046.54
-3618.23
-1254.06
-4005.39
-4592.49
-2002.8
-4443.41
-4949.88
-5083.28
-4373.78
-3590.57
-4615.61
-3652.97
-3884.19
-4717.93
-3185.68
-5201.37
-2424.81
-3436.98
-4445.16
-3225.07
-3125.59
-2369.11
-4636.68
-2136.41
-3343.77
-126.404
-2080.33
-1732.28
-3524.38
-5806.1
-4262.11
-1962.57
-3663.46
-2112.63
-766.192
-1454.33
-1154.67
-1871.49
-3653.6
-4013.34
-2042.26
-3919.01
-3450.29
-5776.22
-4362.26
-6354.67
-1423.49
-3948.4
-5755.36
-1625.66
-3225.64
-1286.79
-634.862
-3545.26
-2874.94
-810.465
-160.118
-307.539
-2332.15
-5036.37
-5087.88
-6477.32
-4603.06
-713.415
-5048.72
-437.869
-688.309
-1339.75
-2528.84
-609.118
-1753.98
-3336.72
-5857.1
-3592.38
-4554.6
-5585.57
-5265.16
-691.008
-4923.19
-2254.4
-1188.46
-4984.49
-1866.69
-271.759
-3529.85
-3218.92
-5760.75
-2444.72
-5065.31
-192.642
-3796.85
-1942.1
-1509.04
-1557
-2165.63
-4320.85
-4381.46
-2154.79
-2976.19
-5024.62
-2923.16
-1424.89
-2701.74
-1484.45
-2755.18
-1275.3
-1040.49
-3125.88
-5744.3
-3254.07
-2904.71
-4077.9
-3501.11
-5450.58
-354.016
-3667.11
-1886.07
-1967.19
-4515.31
-5487.63
-4814.95
-2822.7
-1835.42
-3359.58
-2000.55
-3967.38
-736.6
-1730.42
-1851.59
-3998.35
-6296.73
-4649.07
-6224.3
-2632.63
-3956.68
-1987.99
-3907.74
-1981.05
-2274.15
-3699.71
-5271.33
-6320.06
-205.802
-3186.49
-234.431
-3456.5
-495.765
-256.111
-5922.71
-4288.91
-2160.94
-2783.4
-4451.97
-5076.81
-2251.64
-3902.43
-611.107
-3105.52
-6456.24
-5137.9
-5104.64
-5407.31
-3096.31
-5901.74
-2523.56
-1335.66
-3254.05
-5211.35
-3476.04
-3340.04
-2987.15
-722.691
-1329.14
-2865.66
-860.195
-1258.84
-4839.23
-3018.13
-3760.99
-5190.3
-1918.52
-3087.11
-4516.28
-562.676
-6544.04
-5010.03
-4948.96
-2917.86
-4096.84
-5201.9
-5243.77
-3416.01
-3484.92
-3526.87
-5258.95
-1205.48
-3216.35
-5496.43
-4212.68
-6374.37
-5105.73
-6309.42
-5206.87
-3625.56
-736.413
-4154.06
-5501.47
-4652.91
-3939.92
-873.515
-551.568
-248.818
-452.039
-963.202
-2783.27
-3848.52
-1808.08
-3435.41
-3550.78
-5075.14
-1789.3
-6299.15
-4791.47
-4906.51
-6045.65
-4293.46
-2214.3
-4752.94
-2695.74
-1755.11
-5091.72
-4731.54
-477.175
-3179.9
-3426.87
-1785.68
-5068.31
-1277.78
-3241.21
-3431.11
-5558.08
-2989.98
-1559.97
-2972.75
-5493.76
-3610.41
-1195.91
-2372.53
-2392.92
-4669.07
-882.032
-1924.71
-5058.07
-3912.75
-1240.87
-2340.82
-1260.54
-676.048
-6283.16
-5334.7
-2280.49
-4533.22
-4360.7
-6337.96
-5097.58
-5116.08
-2607.83
-2443.35
-5035.32
-3288.78
-6408.64
-1530.21
-5370.51
-4722.34
-5162.03
-5155.41
-4180.47
-741.249
-6381.72
-5099.81
-5406.77
-4973.13
-1002.31
-4737.22
-2903.9
-625.424
-5049.03
-486.931
-5156.22
-3207.17
-1807.77
-4320.75
-3905.39
-1499.03
-2981.95
-3461.22
-1943.63
-4631.58
-3200.78
-1942.95
-2749.37
-4841.42
-1263.51
-3013.53
-5102.36
-1176.01
-4460.08
-2430.86
-3867.28
-1642.97
-3437.57
-148.443
-3638.19
-2729.95
-1429.33
-5503.89
-1245.85
-441.27
-797.051
-1262.11
-6120.52
-5211.35
-4369.9
-1542.35
-822.813
-4545.8
-2433.88
-4635.92
-2322.51
-2435.22
-6236.2
-4198.9
-2111.74
-4037.45
-3932.8
-3211.3
-2495.98
-2026.62
-3526.97
-4405.06
-2400
-3715.28
-926.193
-4691.48
-705.017
-5157.26
-5104.77
-102.491
-1544.03
-2982.65
-2866.75
-2180.54
-2439.13
-4574.32
-415.396
-847.475
-4008.59
-2101.51
-3750.59
-661.493
-154.236
-5012.94
-6298.73
-1577.29
-2902.27
-4976.15
-5492.49
-4373.88
-5103.81
-2426.51
-4031.64
-2937.02
-5253.22
-6370.31
-5196.82
-3678.14
-4604.24
-6188.11
-800.089
-436.118
-2855.79
-5840.22
-1996.43
-3788.59
-5810.88
-2876.75
-1351.12
-431.035
-804.944
-3974.33
-5926.05
-5283.97
-5035.64
-6377.26
-1279.62
-4983.45
-6347.26
-1169.56
-4204.71
-2146.85
-3845.54
-1361.85
-2518.14
-2072.83
-3399.61
-5073.38
-2237.25
-2556.88
-1296
-4961.08
-2653.57
-4748.32
-4063.95
-2135.23
-4541.55
-3203.86
-4360.01
-3552.7
-5431.78
-1679.03
-1945.95
-120.252
-206.289
-5400.95
-3056.3
-2765.08
-3817.01
-1996.89
-3974.04
-1131.51
-4349.18
-2051.05
-4809.61
-3539.96
-6040.48
-2356.56
-5501.47
-4487.1
-6308.99
-4156.97
-1506.12
-806.476
-2020.08
-3535.11
-3067.94
-2972.98
-5454.32
-1743.4