/*--------------------------------*- C++ -*----------------------------------*\
  =========                 |
  \\      /  F ield         | OpenFOAM: The Open Source CFD Toolbox
   \\    /   O peration     | Website:  https://openfoam.org
    \\  /    A nd           | Version:  7
     \\/     M anipulation  |
\*---------------------------------------------------------------------------*/
FoamFile
{
    version     2.0;
    format      ascii;
    class       surfaceScalarField;
    location    "2";
    object      phi;
}
// * * * * * * * * * * * * * * * * * * * * * * * * * * * * * * * * * * * * * //

dimensions      [0 3 -1 0 0 0 0];

internalField   nonuniform List<scalar> 
97653
(
3.78507e-07
-3.55836e-07
-2.26706e-08
-6.83719e-07
3.71072e-07
3.12648e-07
-5.54598e-07
3.80622e-07
1.73976e-07
-2.05532e-07
1.65775e-07
3.97571e-08
1.3174e-07
-2.68731e-07
1.36991e-07
-5.56436e-08
4.69573e-07
-4.13929e-07
2.35993e-07
4.25316e-07
-6.61309e-07
1.46354e-08
-4.06686e-07
3.9205e-07
-6.56359e-07
3.46308e-07
3.10051e-07
-4.8839e-07
7.88903e-07
-3.00513e-07
-5.67258e-08
-4.74799e-08
1.04206e-07
3.44512e-07
-6.27296e-07
2.82783e-07
-6.67149e-07
8.14019e-07
-1.4687e-07
-4.43395e-07
9.13613e-07
-4.70218e-07
-2.18971e-07
4.35419e-07
-2.16448e-07
-1.90963e-07
-1.71762e-07
3.62725e-07
-3.52763e-08
-1.95108e-08
5.47871e-08
5.93284e-10
-1.6419e-07
1.63596e-07
8.43756e-07
-5.73665e-07
-2.70092e-07
2.91122e-07
-5.78925e-08
-2.33229e-07
-2.54918e-07
-2.33957e-08
2.78314e-07
6.60455e-08
1.57079e-08
-8.17534e-08
1.01263e-07
-1.18973e-07
1.77097e-08
3.33526e-07
-8.41878e-08
-2.49339e-07
-1.0979e-06
6.43233e-07
4.54663e-07
-5.58543e-07
-5.39354e-07
4.9903e-07
-7.53937e-07
2.54907e-07
-1.39531e-07
-5.0677e-07
6.46301e-07
1.04648e-07
-2.55029e-07
1.50381e-07
2.69383e-07
-2.59968e-07
-9.41539e-09
1.33916e-06
-2.32405e-07
-1.10675e-06
2.42569e-06
-4.51563e-07
-1.97413e-06
-8.07928e-08
5.23303e-07
-4.4251e-07
1.43512e-07
1.78941e-07
-3.22452e-07
-1.53538e-07
4.00299e-08
1.13508e-07
6.77562e-07
-1.31333e-07
-5.46229e-07
-1.5062e-07
3.73657e-07
-2.23037e-07
9.05771e-08
-4.44699e-08
-4.61072e-08
-3.22446e-07
1.59775e-07
1.62671e-07
1.08963e-07
-1.52848e-07
4.38851e-08
-4.67507e-07
1.85876e-08
4.4892e-07
1.45839e-07
-3.0839e-07
1.62551e-07
3.80108e-07
-7.60053e-07
3.79945e-07
3.93918e-07
-7.02989e-07
3.09071e-07
5.67456e-07
-3.2692e-07
-2.40536e-07
3.52475e-07
-3.80466e-07
2.79909e-08
1.93707e-07
-3.06613e-07
1.12906e-07
3.0321e-07
-1.23444e-07
-1.79766e-07
-6.21071e-07
4.1132e-07
2.09751e-07
-9.3716e-08
-2.3386e-07
3.27576e-07
-3.88065e-07
-1.14791e-07
5.02856e-07
-2.75882e-07
-2.01195e-07
4.77077e-07
5.25155e-07
1.76573e-07
-7.01728e-07
-2.18869e-07
9.59749e-07
-7.4088e-07
8.62082e-07
-2.955e-07
-5.66582e-07
-1.17095e-06
2.45746e-07
9.25202e-07
-2.23843e-06
4.73424e-07
1.765e-06
8.54869e-07
-5.49562e-08
-7.99913e-07
1.68985e-06
-1.8554e-06
1.65554e-07
-2.44356e-07
1.68829e-07
7.55272e-08
-6.47734e-07
7.95841e-07
-1.48106e-07
-3.4978e-07
-1.02178e-07
4.51958e-07
7.51346e-07
-1.29178e-06
5.40435e-07
3.59285e-08
-3.25579e-07
2.89651e-07
-4.40403e-08
-2.46158e-08
6.86561e-08
-3.74077e-07
9.68219e-07
-5.94142e-07
6.9626e-07
-9.72142e-07
5.79653e-08
-3.9233e-07
3.34365e-07
-3.77114e-08
-8.17725e-07
8.55436e-07
-2.09251e-07
2.17597e-07
-8.34623e-09
-4.65239e-07
7.71739e-08
1.59878e-06
-4.26834e-07
-1.17194e-06
-3.50904e-09
5.10912e-07
-5.07403e-07
1.31286e-06
-2.68808e-07
-1.04405e-06
7.60695e-07
-1.52507e-07
-6.08188e-07
1.43905e-06
-4.6399e-07
-9.75062e-07
-2.99672e-07
4.47537e-08
-1.75107e-07
-4.3025e-08
2.18132e-07
-9.37327e-08
-1.1924e-07
2.12973e-07
3.0434e-07
-4.94822e-07
1.90482e-07
-4.97331e-07
5.04105e-07
-6.77409e-09
-3.69668e-09
1.75789e-07
-1.72092e-07
-5.90041e-08
4.57381e-08
1.3266e-08
-9.81425e-07
1.49309e-07
8.32116e-07
-1.6015e-07
2.12606e-09
1.58024e-07
-3.09854e-07
1.17023e-07
1.92831e-07
2.33924e-07
-3.62061e-07
1.28137e-07
-5.37128e-07
-7.13963e-07
8.50346e-07
-1.36384e-07
3.14671e-07
-3.20248e-07
5.57686e-09
1.86829e-07
-3.25671e-07
1.38843e-07
1.7858e-07
5.66085e-07
-7.44665e-07
2.92214e-07
8.86607e-07
-1.17882e-06
4.67773e-07
-6.26201e-07
1.58428e-07
5.27517e-07
-6.47715e-07
1.20198e-07
2.98122e-07
-1.46547e-07
-1.51575e-07
-9.62546e-08
-8.80226e-07
9.7648e-07
-4.63319e-07
6.50965e-07
-1.87646e-07
-4.22276e-07
-7.92854e-09
4.30204e-07
4.4463e-07
-1.05123e-07
-3.39507e-07
2.75441e-07
2.24878e-07
-5.00319e-07
6.37393e-07
3.21815e-07
-9.59208e-07
-5.53506e-07
5.22346e-07
3.11592e-08
3.84776e-07
-3.51675e-07
-3.31015e-08
-1.05851e-07
5.54358e-07
-4.48507e-07
4.60651e-07
1.36771e-07
-5.97422e-07
1.03509e-06
-5.26511e-07
-5.08578e-07
-1.50011e-06
7.16251e-07
7.83856e-07
-4.72191e-07
-5.60008e-08
5.28191e-07
-2.13428e-06
2.35024e-06
-2.15962e-07
1.35965e-07
3.55601e-07
-4.91566e-07
1.365e-07
-1.82485e-07
4.59847e-08
2.01918e-07
-1.37371e-07
-6.4547e-08
-6.63814e-08
-3.42686e-08
1.0065e-07
-9.81088e-09
2.33819e-07
-2.24008e-07
-1.03981e-06
4.08598e-07
6.3121e-07
7.46533e-07
-4.48305e-07
-2.98229e-07
-5.21867e-07
3.19823e-07
2.02043e-07
7.72768e-07
-7.00997e-07
-7.17707e-08
3.32207e-07
-3.85387e-07
5.31799e-08
-2.61995e-07
1.76381e-08
-7.78314e-07
1.3058e-07
5.71438e-07
-8.27549e-07
2.56111e-07
2.36802e-07
-3.58137e-07
1.21335e-07
-4.21537e-09
4.4308e-08
-4.00927e-08
3.08031e-08
-4.10965e-07
3.80161e-07
1.89663e-07
-2.4636e-07
5.66972e-08
2.16014e-07
4.10731e-08
-2.57087e-07
-1.63248e-07
-2.22527e-07
3.85775e-07
-2.44682e-07
6.84674e-08
1.76215e-07
4.87355e-07
3.2631e-07
-8.13665e-07
-6.51576e-07
5.61743e-07
8.98332e-08
-1.03304e-07
-1.12828e-07
2.16132e-07
-4.67833e-08
1.56305e-08
3.11528e-08
1.26039e-07
-4.73852e-08
-7.86536e-08
-3.30818e-07
1.73287e-07
1.57531e-07
5.66404e-07
-5.23075e-07
-4.33288e-08
2.555e-07
-2.14854e-07
-4.06463e-08
1.31616e-07
-2.86501e-07
1.54885e-07
-1.52718e-07
3.28337e-07
-1.7562e-07
-4.28581e-07
-4.31474e-07
8.60054e-07
-5.67668e-07
-4.42038e-07
1.00971e-06
-7.73796e-09
3.91247e-07
-3.83509e-07
4.68224e-07
1.23954e-07
-5.92178e-07
1.24527e-07
-2.60291e-07
1.35764e-07
-5.98871e-07
6.67446e-07
-6.85748e-08
-4.27664e-07
6.2539e-07
-1.97726e-07
-5.23229e-08
-1.69379e-07
2.21702e-07
-2.70368e-07
-5.2078e-08
1.06562e-07
-7.55122e-07
6.48559e-07
1.42606e-06
1.19258e-07
-1.54531e-06
-1.54162e-08
1.06582e-07
-9.11661e-08
-1.48096e-07
-5.97954e-09
1.54075e-07
1.49597e-07
-6.97785e-08
-7.9818e-08
-4.1712e-07
1.35602e-07
2.81518e-07
-2.65647e-07
2.23875e-07
4.1772e-08
-1.56062e-07
-2.36809e-07
3.92871e-07
4.48731e-07
-7.54372e-07
3.05642e-07
-2.4134e-07
-7.20635e-08
3.13403e-07
-2.98217e-07
2.38001e-07
6.02162e-08
-5.75341e-07
4.17893e-07
1.57448e-07
-2.1422e-07
2.88685e-08
1.85351e-07
-1.00662e-07
-3.01783e-07
4.02445e-07
-1.56877e-07
8.78125e-09
-8.68017e-08
2.36397e-07
7.63566e-07
-2.86996e-09
1.34689e-06
-3.40321e-08
-5.62263e-07
1.04499e-06
-4.82728e-07
1.26945e-07
6.1439e-07
-7.41335e-07
1.24515e-07
3.99394e-07
-5.23909e-07
-7.35194e-07
3.71636e-07
3.63558e-07
-4.43591e-07
1.51771e-07
2.9182e-07
-4.4452e-07
3.06482e-07
1.38038e-07
-4.29647e-07
4.19577e-07
1.00695e-08
-7.03455e-07
-5.01449e-07
1.2049e-06
-3.74737e-08
-1.13146e-07
-7.42716e-07
4.37113e-07
3.05602e-07
-2.68109e-07
4.11754e-07
-1.43645e-07
2.34211e-07
-3.61173e-07
1.26963e-07
-6.74871e-07
4.19237e-07
2.55634e-07
-1.30624e-07
-1.79826e-08
1.48606e-07
-3.38257e-07
3.95346e-07
-5.70887e-08
1.11622e-07
1.06084e-07
-2.17706e-07
-2.32024e-07
-1.79881e-08
2.50012e-07
-1.54096e-07
-6.5889e-08
2.19985e-07
-2.03677e-07
-1.45468e-07
3.49145e-07
2.69945e-08
-1.87866e-07
1.60872e-07
1.77276e-07
-8.64132e-08
-9.08626e-08
3.22013e-08
-8.56833e-08
5.3482e-08
5.68303e-07
3.13576e-09
1.65883e-07
7.09195e-08
5.80305e-07
-1.73466e-07
-4.06839e-07
1.25318e-06
-7.85818e-07
-4.67363e-07
4.35105e-07
-3.51202e-07
-8.3903e-08
-1.85537e-07
7.66254e-08
1.08912e-07
-1.23711e-08
8.67399e-09
-3.2137e-07
2.62366e-07
-4.36929e-07
3.17018e-07
1.19911e-07
5.60981e-07
-4.36468e-07
-1.57844e-07
6.98241e-07
-5.40398e-07
-3.71078e-07
-3.71637e-07
-1.00288e-06
7.42949e-07
2.59927e-07
4.15994e-07
1.50409e-07
7.66353e-07
-4.59082e-07
-3.07271e-07
1.48036e-07
-1.67647e-07
1.96107e-08
4.38466e-07
2.09373e-07
-6.47839e-07
-3.27656e-07
1.73561e-07
-7.12553e-08
-1.32421e-07
-2.2428e-07
6.23675e-07
-4.24178e-09
-4.39397e-07
4.43639e-07
5.79453e-07
-5.77536e-07
-1.91761e-09
-2.24322e-07
5.92958e-08
1.65026e-07
-2.16822e-08
-1.06405e-07
1.28087e-07
-6.18694e-07
-8.50266e-08
7.0372e-07
-3.49186e-08
-3.73239e-07
4.08158e-07
-1.64598e-07
-2.31743e-07
3.96341e-07
-4.02853e-07
5.09415e-07
-3.75091e-08
3.85527e-07
-3.48018e-07
1.59015e-08
3.33517e-08
-4.92532e-08
-5.8309e-07
4.30372e-07
2.52995e-07
3.40926e-07
-5.93921e-07
3.73927e-07
-7.02417e-08
-3.03686e-07
5.75554e-07
-1.10608e-07
-4.64946e-07
-2.83644e-07
4.62224e-07
-4.11863e-07
7.04076e-07
-1.25875e-06
6.63983e-07
5.94766e-07
-3.86872e-08
4.71514e-07
-4.32827e-07
-2.0537e-07
4.83341e-07
-2.77971e-07
-2.04148e-07
-3.58116e-07
-4.02213e-07
4.16847e-07
8.80384e-07
8.49045e-07
-1.72943e-06
4.57581e-07
5.33982e-07
-9.91562e-07
4.47658e-07
3.51808e-07
-7.99465e-07
-8.72334e-07
4.51281e-07
4.21053e-07
-8.9716e-08
-2.86968e-07
3.76685e-07
-1.52211e-07
3.92307e-07
-2.40096e-07
-7.83772e-07
6.2771e-07
-4.86599e-07
-4.52569e-07
9.39168e-07
2.76106e-07
-4.04704e-07
1.28598e-07
1.876e-07
-9.05633e-08
-9.70363e-08
3.00856e-07
4.76204e-08
-3.48477e-07
-1.23043e-07
-7.92592e-08
2.02302e-07
-2.33405e-07
3.33372e-08
2.00068e-07
1.34369e-07
-6.83234e-08
4.8955e-07
-2.21224e-07
-2.68326e-07
5.78829e-07
6.13607e-07
-1.19244e-06
-7.70051e-07
5.30563e-07
2.39487e-07
-6.41608e-07
1.50954e-07
4.90654e-07
-1.1071e-06
-3.74745e-07
1.48185e-06
-1.18321e-07
-3.88148e-07
5.06469e-07
5.62606e-07
2.59971e-08
-5.88603e-07
2.00341e-07
1.14776e-07
-3.15117e-07
-5.76663e-07
1.34132e-08
5.6325e-07
6.99907e-07
-1.33421e-07
-5.66485e-07
-1.86347e-07
1.25953e-07
6.03944e-08
-7.83568e-08
-1.33505e-07
2.11862e-07
-2.36822e-07
2.32579e-07
-1.48153e-06
7.99293e-07
6.82235e-07
2.6694e-07
3.21098e-06
-3.47792e-06
1.58455e-07
2.81221e-07
-4.39676e-07
5.08216e-07
-3.6125e-07
-1.46966e-07
-1.11195e-07
4.30002e-08
6.81949e-08
-2.73795e-07
-3.64522e-07
6.38317e-07
4.4643e-07
-2.1256e-07
-2.3387e-07
1.21214e-06
-4.02802e-07
-8.09333e-07
2.69285e-08
-3.57744e-08
8.84589e-09
-9.85762e-07
1.88036e-06
-8.94597e-07
8.30767e-07
-6.72819e-08
-7.63486e-07
6.69715e-07
-2.73331e-07
-3.96384e-07
9.49799e-07
-6.27427e-07
-3.22372e-07
-2.9748e-07
1.94328e-07
1.03152e-07
-1.97595e-07
-1.72668e-08
2.14862e-07
-3.84301e-07
1.19257e-06
-8.08267e-07
-9.21355e-07
4.9358e-07
4.27775e-07
-1.21661e-07
8.61127e-08
3.55486e-08
5.82591e-07
-3.38546e-07
-2.44045e-07
4.53619e-07
-4.57901e-07
4.28195e-09
-1.51216e-07
1.05802e-07
4.54137e-08
-2.51606e-08
4.86417e-08
-2.34811e-08
-1.8e-07
1.3087e-07
4.91302e-08
-3.3072e-07
2.33647e-07
9.70729e-08
-6.20215e-07
2.05816e-07
4.14399e-07
6.81706e-08
3.25745e-07
9.45734e-07
-6.85754e-07
-2.5998e-07
9.50052e-07
-5.86596e-07
-3.63455e-07
3.64498e-07
-2.18659e-07
2.81791e-07
9.83168e-08
2.76712e-07
-8.91119e-08
3.96002e-08
-1.2606e-08
-4.73254e-07
6.17478e-07
-1.44224e-07
1.54955e-07
-6.83967e-07
5.29012e-07
1.7734e-08
-6.09579e-07
5.91845e-07
-3.08586e-07
6.1893e-07
-3.10343e-07
-7.30795e-08
7.11537e-07
-6.38457e-07
-5.85669e-07
-6.398e-07
1.22547e-06
-2.41579e-07
2.84276e-07
-4.26969e-08
3.10526e-07
-2.8978e-07
-2.07455e-08
4.42584e-07
-4.57637e-07
1.50522e-08
1.35716e-07
-1.91062e-08
-1.1661e-07
5.91719e-07
3.54015e-07
4.57542e-07
4.9251e-07
-5.77475e-07
4.6355e-07
1.13925e-07
1.13123e-07
2.1624e-07
-3.29363e-07
2.76735e-07
3.87239e-07
-6.63975e-07
-2.79689e-08
3.54764e-08
-7.50746e-09
-2.81098e-07
1.58672e-07
1.22426e-07
-1.59168e-07
-1.48507e-07
3.07675e-07
-2.49644e-06
2.21918e-06
2.77263e-07
4.40078e-08
-4.7459e-07
4.30582e-07
-2.03431e-07
-1.27387e-07
-4.82321e-07
2.56526e-07
2.25794e-07
-4.12461e-07
1.71e-07
2.41461e-07
1.20282e-06
1.44526e-07
-1.34735e-06
4.01369e-07
1.66086e-07
6.7046e-08
2.85429e-07
1.15653e-08
-3.69834e-07
3.58269e-07
6.2157e-07
2.53053e-08
-6.46875e-07
-5.69369e-07
4.06121e-07
-3.4677e-07
1.02089e-07
-8.70788e-08
4.07135e-07
-3.20057e-07
-4.74856e-07
9.34222e-08
3.81434e-07
2.38563e-07
1.52112e-07
-3.90675e-07
-1.29562e-07
-4.84865e-08
1.78048e-07
-3.36464e-07
7.52336e-08
2.6123e-07
4.36983e-07
-7.15001e-07
2.78018e-07
7.32336e-07
-1.16751e-06
4.35173e-07
3.47817e-07
-2.47332e-07
-1.00485e-07
2.63735e-07
-1.19776e-06
9.34027e-07
-1.85427e-07
1.59692e-07
2.57345e-08
8.5447e-07
1.65322e-08
-8.71003e-07
1.21431e-06
6.11223e-07
-1.82554e-06
2.07695e-07
1.34278e-07
-3.41972e-07
4.64502e-08
2.04625e-07
-2.51075e-07
-1.01932e-07
5.27082e-08
4.92238e-08
2.83648e-06
-2.4189e-06
-4.17579e-07
8.05634e-07
-2.87707e-07
-5.17927e-07
5.72713e-07
-6.61043e-07
8.83299e-08
-3.19361e-07
5.65597e-07
-2.46237e-07
6.257e-07
-7.76624e-07
1.50924e-07
3.66123e-07
-6.26275e-07
2.60152e-07
-1.39501e-07
-1.02079e-07
-3.89235e-07
5.0495e-07
-1.15715e-07
2.919e-07
-2.23998e-07
-6.7902e-08
4.24593e-07
-4.3393e-07
9.33738e-09
-1.38275e-07
-4.71524e-08
5.93923e-07
-8.9258e-09
-5.84997e-07
3.65517e-07
4.07251e-07
4.86478e-06
-4.38622e-06
-4.78557e-07
7.08672e-07
-3.64161e-07
1.55289e-08
-2.90728e-07
2.752e-07
-5.36639e-09
1.97681e-07
-1.92315e-07
1.11168e-07
2.52808e-07
-3.63976e-07
-2.29482e-07
2.60179e-07
-3.06972e-08
-5.09119e-07
3.80786e-07
1.28333e-07
3.22732e-07
2.62121e-08
-3.48944e-07
-1.39019e-06
6.59314e-07
7.30873e-07
2.67981e-07
5.30842e-08
-3.21065e-07
1.53869e-07
2.34067e-08
-6.47684e-08
9.69707e-08
-2.59476e-06
1.1792e-06
1.41556e-06
-1.45741e-06
6.3425e-07
8.23158e-07
-7.59773e-07
1.2588e-06
1.09392e-06
1.18219e-07
-1.06102e-06
3.46287e-07
7.14731e-07
-1.32338e-07
1.47716e-07
-1.53782e-08
1.60113e-07
3.08615e-07
-4.68729e-07
-2.48962e-07
-3.15254e-09
2.52115e-07
2.44218e-08
-3.32684e-07
3.08262e-07
-3.25034e-07
2.55666e-08
2.99467e-07
-7.18496e-08
9.42912e-08
-2.24417e-08
1.25639e-07
1.47567e-07
-2.73206e-07
-8.34116e-07
2.66449e-07
7.06598e-08
-6.15295e-07
5.44635e-07
1.65246e-06
-1.27361e-06
-3.78856e-07
1.57142e-07
4.20039e-07
-5.77181e-07
3.36884e-07
-7.8018e-07
4.43296e-07
4.35533e-08
7.95107e-08
-1.23064e-07
3.49224e-07
2.14934e-07
-5.64158e-07
1.4057e-08
-1.8272e-08
-3.12545e-07
9.5278e-07
-6.40235e-07
2.03662e-07
-3.40484e-07
1.36822e-07
-7.73571e-08
7.79493e-08
1.43748e-07
-1.79025e-07
3.24501e-07
-1.34601e-07
-1.899e-07
4.9801e-07
4.06987e-08
-5.38709e-07
6.78752e-07
-1.36848e-06
6.89725e-07
3.10251e-07
3.53442e-07
-6.63694e-07
5.43867e-07
2.80089e-07
-8.23956e-07
-2.67838e-07
3.19203e-07
-5.13645e-08
-7.14357e-08
4.78268e-07
-4.06832e-07
5.76284e-08
-2.63161e-07
3.05146e-07
-1.70153e-07
-1.34992e-07
1.61209e-07
1.48402e-07
-3.0961e-07
4.39557e-07
1.49519e-07
-5.89076e-07
2.37268e-07
-2.06464e-07
1.03725e-07
8.59373e-08
2.53454e-07
-5.43523e-07
2.90068e-07
1.47268e-06
-2.07219e-06
5.9951e-07
5.44263e-07
-7.43903e-07
1.9964e-07
8.84079e-09
-2.9697e-07
2.88129e-07
1.85111e-07
2.26537e-07
-4.11648e-07
-1.73503e-07
2.78057e-07
-1.04554e-07
-5.51573e-07
2.79772e-07
2.71801e-07
7.38795e-07
-2.52564e-07
-4.8623e-07
3.02114e-07
6.32915e-08
-3.65405e-07
2.7849e-07
-7.25061e-08
-2.05984e-07
5.04089e-07
-2.7774e-07
-2.26348e-07
2.19189e-07
-3.2504e-07
8.30547e-08
1.68762e-07
-2.51817e-07
-3.32501e-07
4.99175e-07
-1.66674e-07
3.46401e-07
-3.80736e-07
3.4335e-08
2.82092e-08
-7.22481e-08
-1.73998e-06
-8.54776e-07
-9.55716e-07
-5.01692e-07
2.63168e-08
-1.53616e-07
1.27299e-07
-1.73263e-07
-7.28275e-08
2.4609e-07
-5.6188e-09
-5.93252e-07
1.85514e-07
-6.13179e-07
9.70419e-07
-1.05779e-06
8.7376e-08
2.37599e-07
2.13031e-07
-4.5063e-07
7.01107e-07
-4.33556e-07
-2.67552e-07
-3.64024e-06
2.55803e-06
1.08221e-06
7.5281e-07
3.86834e-07
-1.13964e-06
-2.06996e-07
2.30405e-07
-2.34087e-08
2.69621e-07
-3.54274e-07
8.46533e-08
-7.23372e-07
-8.80459e-07
1.60383e-06
4.02163e-07
-5.28649e-07
1.26486e-07
-2.27631e-07
8.2139e-07
-5.93759e-07
-4.62312e-08
2.00347e-07
-1.54116e-07
1.38321e-06
-5.32952e-06
3.94631e-06
-1.18702e-06
6.91492e-07
4.95525e-07
-5.13284e-07
7.49278e-07
-1.88092e-07
-2.42164e-08
2.12309e-07
-5.017e-08
-3.83047e-07
4.33217e-07
2.69441e-08
2.8031e-07
-3.07254e-07
2.31272e-07
2.98677e-08
-2.61139e-07
8.33102e-08
-5.39217e-08
-2.93885e-08
-5.08966e-07
-2.04996e-07
4.63746e-07
-3.14543e-07
-1.49202e-07
2.90764e-07
-2.79649e-07
-1.11146e-08
1.80754e-06
-1.10745e-06
-7.00083e-07
-3.78081e-07
-1.1699e-07
4.95071e-07
-4.16283e-07
3.59239e-07
5.70438e-08
-7.46991e-07
2.21967e-06
1.91842e-08
-1.77027e-07
5.94422e-07
-2.27236e-07
-3.67186e-07
1.06949e-07
2.34246e-07
-3.41194e-07
2.38411e-07
-4.06425e-07
1.68013e-07
1.7919e-07
-1.19425e-08
-1.67247e-07
7.38177e-07
-9.09291e-08
-6.47248e-07
-1.53683e-07
1.23892e-08
1.41293e-07
2.58764e-07
-2.85952e-07
2.71878e-08
2.9557e-07
-6.16161e-07
3.20592e-07
-1.03032e-06
2.95131e-07
-6.35016e-07
1.91425e-07
3.91576e-07
-2.71127e-07
-1.20449e-07
-1.51755e-07
-1.44487e-08
1.66203e-07
7.02764e-09
-1.87027e-07
1.79999e-07
-1.11846e-07
-5.15451e-07
2.55144e-07
-1.79697e-07
-7.5447e-08
6.82186e-07
-2.33456e-07
1.56014e-08
3.6161e-07
-3.77212e-07
-5.2073e-07
4.44762e-07
7.59679e-08
5.33559e-07
-1.99579e-07
-3.3398e-07
-4.17957e-07
-2.00737e-07
1.6242e-07
-1.8142e-07
1.9e-08
2.60979e-07
-1.59047e-07
-1.01933e-07
8.10321e-08
-9.91348e-08
1.81027e-08
1.87548e-07
-1.69632e-07
-1.79164e-08
7.04886e-07
-4.67289e-07
7.82609e-07
-8.15028e-08
2.08298e-07
-6.37964e-09
2.33278e-07
-2.99659e-07
-1.75328e-07
-3.34348e-08
2.08763e-07
-2.21893e-07
1.41233e-06
-1.19043e-06
1.26273e-07
2.72856e-08
-1.53559e-07
-3.85404e-08
-9.42487e-08
1.32789e-07
2.76561e-07
-1.2336e-07
-1.53201e-07
3.38659e-07
4.80242e-08
-3.86683e-07
-4.31243e-07
3.92556e-07
-4.72986e-07
2.67616e-07
5.67494e-07
3.82305e-07
2.48585e-07
4.2113e-07
-1.45189e-06
-6.82396e-07
-7.23485e-08
-4.69732e-07
5.42081e-07
2.58569e-07
-1.1643e-07
-1.42139e-07
3.16071e-08
-1.29329e-07
9.77217e-08
-3.14233e-07
2.64369e-07
4.9864e-08
-9.70108e-08
2.78683e-07
-1.81672e-07
-6.21143e-07
4.49284e-07
1.71859e-07
-1.74435e-07
3.42687e-07
-1.68252e-07
1.34229e-06
-2.82538e-07
-1.05975e-06
8.48942e-07
-2.83867e-07
-5.65074e-07
7.83354e-07
-3.18831e-07
-4.64522e-07
-2.01243e-07
-9.84292e-08
2.22948e-07
5.38963e-07
-7.61911e-07
5.97947e-07
1.48585e-07
-8.95696e-07
-3.30535e-08
9.28749e-07
-9.04762e-08
-2.74995e-07
3.65471e-07
5.02311e-08
-1.27625e-08
-3.74687e-08
-2.30129e-09
1.26829e-07
2.07985e-07
-1.36568e-08
-1.94329e-07
-6.74024e-07
1.02641e-06
-3.52383e-07
-1.52832e-07
2.65173e-07
-1.12341e-07
-3.99956e-07
6.21336e-07
-2.21379e-07
-3.62188e-07
3.09865e-07
-3.2046e-07
5.26219e-08
-3.60104e-07
2.88669e-07
1.97293e-07
-3.97416e-07
2.00124e-07
6.84629e-06
-6.84629e-06
1.37314e-07
-3.95985e-07
2.58671e-07
-1.8245e-07
7.01748e-07
-5.19298e-07
-1.76632e-07
-2.41847e-07
4.18479e-07
-1.7247e-06
1.78527e-06
-6.05671e-08
4.31019e-07
-5.05415e-08
-3.80478e-07
3.26957e-07
-5.74498e-08
-2.69507e-07
4.39491e-06
-7.84846e-06
3.45356e-06
8.87658e-07
-3.05067e-07
4.73337e-07
-1.97183e-08
4.6175e-07
-1.53194e-08
2.0507e-06
-8.7317e-07
-1.17752e-06
-3.58413e-08
3.5022e-08
8.19292e-10
1.13827e-06
-1.13827e-06
1.53229e-06
-1.53229e-06
1.80316e-06
-2.20055e-06
3.97391e-07
7.13335e-07
-9.32204e-07
4.87806e-07
-5.93323e-07
1.05516e-07
-7.36397e-08
2.57711e-07
-1.84072e-07
7.9036e-08
-9.4452e-08
-1.4483e-07
-2.35708e-08
1.68401e-07
9.06936e-08
-2.65129e-07
8.52151e-08
-3.72411e-07
2.87196e-07
2.25765e-07
-2.04017e-08
-2.05363e-07
-1.49589e-08
2.18064e-07
-2.03105e-07
4.59536e-07
1.89475e-07
-6.49011e-07
4.55465e-07
3.8051e-07
-8.35975e-07
3.28178e-07
-3.65688e-07
-4.02225e-07
4.63237e-07
-6.10123e-08
-1.72032e-06
-7.76117e-07
2.53844e-07
2.3435e-08
-2.77279e-07
-8.21475e-07
6.29761e-07
1.91714e-07
1.86137e-07
-3.20918e-07
1.34781e-07
8.78875e-07
-1.00192e-06
4.66515e-07
-4.06674e-07
-5.9841e-08
4.55327e-07
5.25689e-08
-5.07896e-07
3.71389e-07
2.04165e-07
4.59585e-07
1.66114e-07
9.23891e-08
2.73734e-07
-2.61396e-07
-1.54886e-07
2.38322e-07
-2.74398e-07
3.60758e-08
5.8394e-07
-8.13519e-09
-5.75804e-07
6.03264e-08
8.65053e-08
-1.46832e-07
-2.80099e-07
2.9736e-07
-1.72601e-08
-2.97265e-07
1.27125e-06
-9.73986e-07
-4.36283e-07
5.67425e-07
-1.31143e-07
-5.94541e-07
8.68123e-07
-2.73582e-07
7.29007e-08
-4.72857e-07
-4.44846e-07
1.71052e-07
-2.81757e-07
-1.95653e-07
4.77409e-07
2.9574e-07
-1.59377e-07
-1.36363e-07
2.20826e-07
-1.71639e-08
-4.89148e-08
-4.15614e-08
-2.43164e-07
7.70681e-07
-7.30698e-07
3.08423e-07
-3.84826e-07
9.69647e-08
2.87861e-07
6.89986e-07
-1.90864e-07
-4.99122e-07
7.28635e-08
-6.37912e-07
5.65048e-07
-2.4349e-07
-9.2974e-08
-4.63411e-08
-8.32207e-08
3.56596e-09
3.13268e-07
-3.16834e-07
3.52427e-07
-4.0516e-07
5.27335e-08
1.50137e-07
1.26598e-07
1.22804e-06
-5.55229e-07
-6.72811e-07
3.3137e-08
-1.52338e-07
1.19201e-07
-4.73383e-08
-3.08202e-08
7.81585e-08
7.65068e-08
-1.94542e-07
1.18036e-07
-5.2335e-07
1.77502e-06
-1.25167e-06
-4.61679e-08
-5.30495e-07
1.92418e-07
5.07489e-07
-3.8544e-07
-3.98126e-08
4.25253e-07
2.4547e-07
-5.27227e-07
-1.74524e-07
4.49965e-07
-2.5953e-07
8.96923e-07
-6.11496e-09
-4.66433e-07
4.72548e-07
8.9196e-07
-5.02533e-07
-3.89427e-07
2.23309e-07
2.01284e-07
2.61864e-07
9.28739e-07
-1.1906e-06
5.17434e-07
1.73538e-06
-2.25281e-06
7.2388e-08
-4.68756e-07
3.96368e-07
-9.63981e-07
-9.11311e-07
1.87529e-06
-4.83622e-09
1.91972e-07
-1.87136e-07
-1.08447e-06
1.15912e-06
-7.46462e-08
-8.13504e-08
8.69401e-09
7.26564e-08
1.62454e-07
-3.86807e-07
2.24353e-07
2.21347e-07
-3.98186e-07
1.76839e-07
1.96313e-07
4.15634e-08
-2.37876e-07
4.40808e-07
-1.03923e-07
5.59083e-07
1.29111e-06
-1.8502e-06
-3.69559e-07
1.43519e-07
2.26041e-07
-6.73438e-07
5.90442e-07
8.29961e-08
-1.01936e-07
-7.33923e-08
-4.04359e-07
3.41235e-07
6.31237e-08
9.57887e-07
-5.66706e-08
-9.01216e-07
-1.29464e-07
-6.99821e-08
1.99447e-07
1.94826e-08
2.14308e-08
-4.09134e-08
8.67478e-08
-1.68857e-07
8.21093e-08
2.56352e-07
4.68578e-08
3.62307e-07
-7.16366e-07
3.54059e-07
-5.28531e-08
-1.80164e-07
2.33017e-07
6.59112e-08
1.39415e-07
-2.05326e-07
-2.92072e-07
2.39806e-07
5.22664e-08
-2.14284e-08
1.99752e-07
-1.78324e-07
4.65681e-07
-7.79783e-07
3.14103e-07
-9.43986e-07
-6.4084e-07
1.58483e-06
-6.30076e-08
9.22579e-08
-2.92502e-08
-5.41909e-07
5.02701e-07
3.92079e-08
1.97416e-07
-2.52819e-07
5.54031e-08
-5.36065e-07
3.63568e-07
1.72497e-07
-1.65583e-07
-4.53089e-08
2.10892e-07
-6.41287e-07
2.91507e-07
-7.94231e-07
6.29452e-07
1.6478e-07
-6.0046e-07
4.29938e-07
1.70522e-07
3.89192e-08
1.09117e-07
9.09195e-07
3.52953e-07
-1.26215e-06
-1.01462e-06
-1.54539e-07
1.16916e-06
-1.2996e-06
-3.06309e-07
1.60591e-06
-5.33427e-07
7.01082e-08
-3.54542e-06
3.43901e-06
1.06416e-07
1.82036e-07
-1.55091e-07
5.45855e-07
-3.14583e-07
3.67953e-07
7.46309e-08
2.16074e-07
-5.318e-09
-2.10756e-07
2.58539e-07
9.55295e-07
-1.21383e-06
6.11277e-07
-4.51164e-07
-3.94127e-07
5.97623e-07
-2.03496e-07
6.20851e-08
3.51132e-07
-4.13217e-07
2.94767e-07
-1.90785e-07
-1.03983e-07
2.27783e-07
-2.84434e-07
5.66505e-08
1.30447e-07
-3.29899e-07
1.99452e-07
4.46473e-08
9.40348e-07
-9.84995e-07
1.0834e-07
-4.55111e-07
2.38714e-07
-8.08083e-07
5.06638e-07
-1.90104e-07
-3.16533e-07
-1.36592e-07
-3.8454e-08
1.75047e-07
7.21639e-07
-1.25181e-07
-5.96458e-07
2.56287e-07
1.85484e-07
-4.41771e-07
-3.01132e-08
1.22595e-07
-9.24818e-08
5.99957e-07
-2.42882e-07
-3.57075e-07
-1.36756e-07
-3.35812e-07
4.72568e-07
-2.74281e-07
3.12088e-08
2.43072e-07
-2.50358e-09
-7.74832e-08
7.99868e-08
-7.82779e-07
-4.04238e-07
2.60627e-07
-2.36254e-07
-2.43723e-08
6.5538e-08
2.32585e-07
3.5467e-07
-2.30929e-07
-1.23741e-07
1.75854e-06
-5.83094e-06
4.0724e-06
-2.42523e-08
-3.63396e-07
3.87649e-07
1.29999e-07
-9.86198e-08
-3.13787e-08
-5.41993e-08
-2.60034e-07
2.34971e-07
-3.31982e-07
5.88956e-07
-1.20733e-07
5.96145e-07
-6.52382e-07
5.6237e-08
2.21914e-07
4.76327e-07
-3.74267e-07
1.28188e-06
-9.07609e-07
-6.46186e-07
2.34756e-06
-1.70137e-06
-3.12632e-07
-6.15631e-07
9.28263e-07
-3.16419e-07
-3.29179e-07
6.45598e-07
3.39598e-07
-1.64517e-06
1.30557e-06
-3.41357e-07
2.5084e-08
-5.49031e-08
2.98191e-08
2.93202e-07
-1.05294e-07
-1.87908e-07
-1.5251e-06
7.50677e-07
7.74423e-07
2.63554e-07
-3.0086e-07
3.73053e-08
-2.70971e-07
7.99649e-07
1.45913e-08
4.30486e-07
-4.45077e-07
-1.77405e-07
8.68358e-09
1.68721e-07
-6.81457e-07
-7.87001e-08
7.60157e-07
-6.86624e-07
1.75986e-07
5.10639e-07
3.10246e-07
-3.85551e-07
7.53052e-08
-1.49159e-06
2.91529e-06
-1.42371e-06
-8.61056e-08
-2.91977e-07
-1.81102e-06
5.57296e-06
-3.76194e-06
-9.5653e-07
1.51562e-06
-2.98608e-07
4.3118e-07
-1.32573e-07
7.2494e-07
-2.57166e-07
1.22089e-07
1.38537e-07
7.19681e-07
-6.43175e-07
3.67885e-07
-1.03296e-06
6.65075e-07
-3.55138e-08
1.21587e-07
-8.60733e-08
-4.43336e-08
2.6041e-07
-1.07285e-07
-4.32722e-08
1.50557e-07
-3.78357e-07
-1.76169e-07
5.54526e-07
-1.29617e-07
5.12603e-08
1.77478e-08
-2.04095e-07
3.08121e-07
3.42845e-07
-8.93379e-08
-9.87545e-08
-5.0277e-07
3.57302e-07
-5.05433e-07
4.39544e-07
6.31368e-08
2.01726e-08
-6.55135e-08
-3.64184e-08
9.98246e-08
-2.37869e-07
1.38044e-07
2.58758e-07
-2.44018e-07
-1.47398e-08
8.36008e-07
-4.53832e-07
-3.82176e-07
-1.78025e-07
-4.3692e-08
2.21717e-07
-7.10796e-08
4.53782e-08
2.57013e-08
3.24494e-07
1.11456e-06
5.48937e-08
7.07457e-08
1.68601e-07
1.54129e-07
-1.90417e-06
6.49508e-08
1.83922e-06
-2.42351e-07
-7.39074e-07
-4.2069e-09
-1.55944e-07
-1.85105e-07
-4.29584e-08
2.28063e-07
8.38775e-08
3.7145e-07
5.51068e-07
-3.6493e-07
-2.81401e-07
-1.04039e-07
-4.0457e-07
8.71383e-08
3.17432e-07
3.9598e-07
-6.50296e-07
2.54316e-07
-5.14112e-07
2.82088e-07
8.5183e-07
-6.00614e-07
-2.51216e-07
3.81468e-07
-2.01773e-07
-1.79695e-07
4.96564e-07
-1.26941e-08
-4.8387e-07
1.94912e-07
-3.41239e-08
-1.60789e-07
-1.63721e-07
-3.57553e-08
1.99476e-07
-4.08437e-07
2.95238e-07
1.13199e-07
1.90732e-06
-2.94189e-07
-1.61313e-06
-2.07967e-06
1.91129e-06
1.68375e-07
-1.11949e-06
1.05573e-06
6.3761e-08
6.10012e-08
7.20911e-08
-1.33092e-07
8.54139e-07
-1.26086e-06
4.06725e-07
2.04123e-07
-5.65567e-08
5.46291e-07
-6.92514e-07
1.46223e-07
8.81496e-07
-1.16085e-06
2.79358e-07
-2.87218e-07
1.78968e-08
2.69322e-07
1.16015e-06
-9.01612e-07
1.33731e-06
-1.77953e-08
-1.31951e-06
2.56099e-06
-3.62936e-08
-2.52469e-06
-2.73384e-07
3.70553e-07
-9.71687e-08
4.59652e-07
-2.29323e-07
-2.30329e-07
5.06309e-07
-4.89878e-07
-1.64311e-08
2.30598e-07
1.32141e-07
-3.62739e-07
1.40175e-07
2.05193e-07
-3.45368e-07
-2.49908e-07
5.78537e-07
-3.28629e-07
-5.8574e-07
9.36441e-07
-3.50701e-07
3.78354e-07
6.23457e-09
-3.84589e-07
-1.439e-07
1.63083e-07
1.7492e-07
-3.88161e-07
2.13242e-07
1.19849e-07
1.59213e-07
-2.79062e-07
1.90104e-06
2.13992e-06
-4.04097e-06
-5.06456e-07
1.56836e-07
3.49619e-07
-2.17768e-07
2.61332e-07
-4.3564e-08
-7.42071e-07
6.03162e-07
1.38908e-07
1.96843e-07
4.64487e-07
-6.6133e-07
4.35753e-07
-1.99142e-07
-2.36611e-07
5.65812e-07
-4.06602e-07
-1.5921e-07
8.77403e-07
-5.92571e-07
-2.84833e-07
9.3487e-08
-2.00212e-07
1.06725e-07
-7.65749e-08
3.07173e-07
-2.00335e-07
3.4051e-07
4.45344e-07
-8.73925e-07
3.47493e-09
-1.89012e-07
-5.73549e-08
1.58034e-07
-1.00679e-07
-1.69741e-07
2.27491e-08
1.46992e-07
3.40993e-07
5.30081e-07
-8.71074e-07
3.22402e-06
-1.15329e-06
-2.07073e-06
3.71082e-07
-7.82301e-07
4.11219e-07
1.13652e-07
4.80271e-07
5.64913e-08
2.56234e-07
-3.12725e-07
-2.16545e-07
-1.65017e-06
1.86672e-06
-9.35358e-08
-9.68249e-07
1.06178e-06
-5.11066e-07
-1.63806e-07
-1.95973e-07
6.53495e-08
-7.73538e-08
-5.21109e-08
2.188e-07
2.60743e-07
-4.79543e-07
5.54753e-07
-3.73851e-07
-1.80902e-07
4.14768e-07
5.17466e-08
1.69936e-07
4.33659e-07
-6.03595e-07
4.26778e-07
5.5933e-07
-9.86107e-07
5.44128e-07
-2.14307e-07
-3.29821e-07
9.02132e-07
-1.1994e-06
3.41331e-07
-6.5647e-07
3.15138e-07
4.91054e-07
-1.30819e-06
8.17137e-07
1.19603e-07
-6.40549e-07
5.20946e-07
-7.09833e-08
-7.65991e-07
8.36975e-07
-1.8175e-07
4.33741e-07
-2.5199e-07
5.11953e-07
3.80006e-07
1.71734e-07
6.24768e-08
5.98957e-07
-5.6956e-07
-2.93972e-08
4.67565e-07
-4.41971e-07
-2.55944e-08
-5.6701e-07
1.37414e-06
-8.07131e-07
-1.70467e-07
-1.24621e-07
2.95087e-07
2.63939e-07
-3.50641e-07
8.67026e-08
1.72754e-06
-1.72991e-07
-1.55455e-06
2.01893e-07
9.29151e-08
-2.94808e-07
-7.22584e-07
-2.80291e-07
-1.13951e-07
3.51468e-07
-2.37517e-07
-1.21677e-07
4.17758e-07
-2.96081e-07
3.22012e-07
-1.39759e-07
-1.82253e-07
-4.73906e-07
-1.47237e-07
2.18238e-08
1.98058e-07
-2.19882e-07
6.35832e-07
-2.27345e-07
-4.08487e-07
5.11085e-07
-2.5093e-07
-2.60156e-07
1.81582e-07
-5.02577e-07
3.20994e-07
5.10565e-08
-6.85074e-08
1.7451e-08
3.0156e-07
-2.49313e-07
-5.22464e-08
1.0542e-08
1.11069e-07
-1.21611e-07
1.2176e-07
-6.14334e-08
5.13523e-08
-3.31451e-07
8.7386e-08
-3.33638e-07
2.46252e-07
1.31683e-06
-6.76157e-07
-6.40674e-07
2.85869e-07
-2.2134e-08
-1.78079e-07
4.73649e-07
9.12418e-08
1.67522e-07
-3.09908e-06
3.0269e-06
7.21842e-08
2.02833e-07
-3.38754e-08
-1.68958e-07
1.93049e-07
-3.72853e-07
1.79804e-07
-3.64646e-08
-1.27639e-08
4.92286e-08
3.25999e-07
-6.50195e-08
2.90157e-07
-2.09125e-07
-3.4377e-06
2.33388e-06
1.10383e-06
4.45103e-07
-1.40829e-08
4.14642e-07
-8.76855e-08
1.96918e-07
-6.78731e-08
-1.29045e-07
3.43353e-07
1.20393e-07
9.98275e-08
1.90936e-07
2.92824e-07
-2.74027e-07
-1.87974e-08
-4.90578e-07
-1.23547e-06
1.72605e-06
7.47525e-07
-6.90421e-07
-5.71037e-08
1.20578e-07
2.99641e-07
-4.20219e-07
-1.763e-06
3.46032e-08
1.72839e-06
-9.48088e-07
-1.98425e-08
9.67931e-07
-2.40144e-07
5.79743e-07
5.40222e-07
-5.96948e-07
-1.21365e-07
1.20144e-07
1.22118e-09
-5.66629e-07
3.80414e-07
1.86216e-07
7.92512e-07
8.59952e-07
6.13168e-07
8.40058e-09
1.20161e-07
1.71739e-07
-4.68904e-07
1.27067e-06
-8.01767e-07
8.27349e-08
1.95755e-07
-5.25554e-07
2.9741e-07
2.28144e-07
3.73798e-07
-4.75248e-07
1.01449e-07
2.66781e-07
-1.26789e-07
-1.39992e-07
2.2337e-07
-9.16301e-08
-3.75731e-07
3.20088e-07
1.95963e-07
1.4503e-07
8.26669e-08
-1.64559e-07
8.18919e-08
2.42367e-07
-4.8824e-07
2.45873e-07
2.09638e-07
-3.64827e-07
1.55189e-07
7.4011e-08
1.81132e-07
-5.3464e-09
-2.5444e-07
2.59786e-07
-8.86796e-08
-1.94136e-08
1.08093e-07
-6.97616e-08
-6.38786e-08
1.80466e-07
-2.43475e-07
1.22284e-06
-1.47421e-07
-1.07542e-06
1.44142e-07
3.74412e-08
-2.14109e-07
5.03882e-08
-2.37142e-07
-1.71296e-07
9.78789e-08
-3.57087e-07
2.59208e-07