/*--------------------------------*- C++ -*----------------------------------*\
  =========                 |
  \\      /  F ield         | OpenFOAM: The Open Source CFD Toolbox
   \\    /   O peration     | Website:  https://openfoam.org
    \\  /    A nd           | Version:  7
     \\/     M anipulation  |
\*---------------------------------------------------------------------------*/
FoamFile
{
    version     2.0;
    format      ascii;
    class       volVectorField;
    location    "2";
    object      U;
}
// * * * * * * * * * * * * * * * * * * * * * * * * * * * * * * * * * * * * * //

dimensions      [0 1 -1 0 0 0 0];

internalField   nonuniform List<vector> 
65364
(
(0.648857 -0.666038 0)
(1.41984 0.433522 1.83313e-17)
(1.21019 -0.115958 -9.29557e-18)
(-0.517354 0.462669 4.64861e-18)
(-0.777485 -0.38205 0)
(1.05763 -1.18981 0)
(1.28993 0.488615 -4.78158e-17)
(1.24202 -0.407301 4.93374e-19)
(0.55794 0.950534 0)
(1.51805 0.538516 1.28837e-17)
(0.949129 0.313433 2.34948e-18)
(0.479106 0.163286 0)
(0.557168 -0.283114 -9.1893e-17)
(1.30833 0.645585 0)
(0.280753 -0.655933 5.01512e-20)
(-0.518282 -0.249282 1.46076e-19)
(0.467482 -0.205474 -2.61595e-17)
(0.725245 0.220657 1.42351e-17)
(-0.00464823 1.41063 7.54167e-18)
(0.0365723 1.00922 -1.83938e-17)
(-1.11352 -0.173362 -1.96956e-17)
(0.300161 0.201938 -2.25494e-17)
(0.295276 -0.35776 -1.82761e-17)
(-0.141566 0.62201 2.23368e-17)
(1.75161 -0.198241 0)
(1.33946 -0.035782 -6.10916e-17)
(2.27581 0.0374587 7.34544e-18)
(1.64332 -0.467816 0)
(0.371248 0.735244 0)
(0.749348 -0.393075 0)
(3.32553 -0.375389 -2.62702e-18)
(6.03181 0.656345 4.88847e-18)
(0.708902 1.30837 -1.73118e-17)
(0.926612 -0.542068 1.32984e-17)
(1.3607 0.0384951 0)
(0.996161 0.565911 -3.58925e-18)
(0.80076 0.663624 4.44893e-18)
(1.27618 -0.843599 0)
(0.0233404 -0.447075 -1.65346e-17)
(-0.360848 0.173242 5.02971e-17)
(0.803348 -1.1117 -3.55197e-17)
(0.0174127 -0.0696335 0)
(-0.515376 0.459596 0)
(0.642706 0.730041 -4.07593e-18)
(0.724437 1.77892 2.25448e-17)
(0.906347 -0.86556 -1.21779e-17)
(0.831874 -0.55557 1.02961e-17)
(0.120405 0.163219 0)
(0.529429 0.106888 0)
(0.0185603 -0.409622 0)
(0.217141 -0.72646 0)
(-0.0286669 0.588723 8.40651e-17)
(0.906155 0.865165 2.55977e-17)
(-1.21671 0.375017 -4.39549e-17)
(0.0572524 1.20102 3.26732e-19)
(3.34259 -0.224136 -6.87602e-18)
(6.41469 0.413852 1.32855e-17)
(0.786807 -1.17253 -4.26989e-17)
(-2.14787 -2.43627 -4.0796e-17)
(-0.169317 -0.410382 2.61898e-17)
(-0.705931 1.34956 -4.12226e-17)
(1.87186 0.895937 6.34507e-17)
(2.4863 -0.505825 7.64084e-17)
(0.196734 1.17502 -1.76271e-17)
(0.187993 0.0659288 1.01321e-17)
(1.7153 0.298357 1.8599e-17)
(-0.724356 0.758889 -7.47716e-17)
(1.35134 -0.345596 0)
(-1.79518 0.619703 -6.43685e-17)
(-0.147195 -0.392745 0)
(0.542823 -0.899105 0)
(-0.794044 1.75563 1.93784e-19)
(0.979799 0.533539 7.61872e-18)
(3.02743 0.386421 -5.02182e-18)
(1.82296 -0.231052 2.6559e-18)
(-2.19915 0.634855 3.88855e-17)
(-0.567712 -0.497763 2.3743e-17)
(-0.56889 0.304675 0)
(0.916078 1.01814 3.81341e-17)
(1.15236 0.389404 0)
(1.09366 0.235229 5.30797e-17)
(0.562617 -0.0800234 5.51105e-18)
(0.0843122 0.257578 -5.75374e-18)
(2.11042 -1.44652 3.37138e-17)
(0.263839 0.303104 -4.83819e-17)
(-0.420775 -0.326333 0)
(0.322954 -0.771438 0)
(0.771621 -0.0465728 -4.36085e-19)
(-0.547079 1.77873 0)
(0.601851 -0.344476 1.58513e-18)
(0.325457 0.738237 -2.82585e-18)
(1.49499 0.347099 -2.04276e-18)
(2.22366 -0.816836 3.75501e-18)
(-0.879026 1.52072 0)
(-0.0468129 0.843744 7.78586e-17)
(0.525183 -0.260724 -3.64574e-18)
(1.47443 1.48248 -5.31846e-17)
(1.48496 -0.381876 -6.31889e-18)
(-0.0147552 -0.161637 5.97033e-16)
(-0.507819 -0.770807 -2.39795e-18)
(0.999081 0.753346 -1.32828e-17)
(2.07295 -1.30027 8.31817e-18)
(1.10223 -1.30238 3.95828e-17)
(-0.863288 -0.857121 -4.83774e-17)
(-0.140226 -0.234563 -5.4798e-17)
(-0.588296 0.522635 -3.42854e-18)
(1.72333 -0.319303 3.83484e-17)
(2.19442 -0.520861 3.25227e-17)
(1.16638 1.24499 0)
(0.600194 -0.0428738 1.98039e-15)
(-0.372709 0.604641 -2.07701e-17)
(-0.451681 0.707185 0)
(0.452098 -0.0868589 1.512e-17)
(-0.0676936 0.268894 -2.83109e-17)
(-0.380385 0.968631 4.03747e-17)
(1.50474 -0.503324 5.19567e-17)
(1.20239 -0.938938 0)
(0.549998 -1.15663 -2.67436e-17)
(1.46729 -0.627718 1.1256e-17)
(0.680287 -0.348817 0)
(0.142348 -0.280649 -6.70468e-18)
(-0.488388 1.31707 1.06668e-17)
(2.41767 0.26191 9.10041e-20)
(1.26148 -0.0946463 1.80381e-18)
(0.733983 0.785853 0)
(-0.993499 1.0978 3.9946e-17)
(-0.10885 -0.848663 -2.55453e-17)
(0.528808 0.627321 -1.60414e-17)
(-0.00106825 0.855138 1.94611e-17)
(0.500794 -0.366751 -2.60487e-17)
(1.381 0.0268649 1.96507e-17)
(0.861827 -1.77019 0)
(0.324346 -0.312421 0)
(-0.305904 0.715787 0)
(0.492343 0.323587 0)
(0.448313 -0.462552 0)
(1.34052 -0.417127 -3.43394e-17)
(0.753898 -0.194602 0)
(0.565681 0.589669 -4.7654e-18)
(0.0703389 0.465272 0)
(2.01294 1.17349 1.40751e-17)
(2.33069 -0.406358 9.11428e-19)
(0.108093 0.40611 1.2463e-17)
(0.958127 0.813722 -4.77801e-19)
(0.543934 -0.415533 2.14945e-17)
(1.42929 -0.403583 0)
(1.10128 0.538193 0)
(-0.147795 -0.770916 3.4245e-17)
(-0.128831 -1.03873 -1.68858e-17)
(2.40375 -1.00394 -2.22896e-18)
(-1.0129 -2.61062 -1.08923e-17)
(-0.126892 0.480243 0)
(0.415472 0.185666 0)
(0.590047 -0.251674 0)
(0.000971322 0.464968 0)
(0.456055 -0.131192 0)
(2.89346 1.04439 -7.11124e-19)
(1.21885 0.168304 -3.39802e-17)
(0.420953 -0.516742 1.70498e-17)
(-0.44236 0.45505 -6.86373e-17)
(0.999189 0.164545 1.95367e-17)
(0.570836 -0.337087 1.81552e-19)
(0.21907 0.260781 -3.54568e-19)
(-0.832716 -0.22528 -2.05946e-17)
(0.0540217 -0.407752 0)
(2.38817 -0.191898 -3.60915e-19)
(4.20238 0.32425 6.84236e-19)
(0.876127 -1.08844 -5.34338e-17)
(-1.13632 -0.278574 0)
(-0.089301 -0.795712 0)
(1.93422 0.607896 -2.00871e-18)
(1.34631 -0.350799 1.07851e-18)
(0.775117 -0.130521 1.81516e-17)
(0.556209 0.37106 -3.4907e-17)
(-0.226579 1.53324 0)
(1.4664 0.467871 0)
(0.814937 -0.242778 -7.40153e-17)
(1.83715 -0.367074 0)
(0.127778 -0.531701 -1.73398e-17)
(1.20236 -0.527856 -3.1115e-17)
(0.0315166 0.53412 0)
(0.678363 -0.658791 0)
(-0.182719 0.116077 -2.69952e-17)
(0.655638 1.44133 0)
(0.809805 0.385971 -7.93164e-18)
(0.945277 -0.177248 4.32006e-18)
(-0.321037 0.247085 0)
(0.301467 -0.0839135 -6.86057e-18)
(-0.326874 0.255409 1.31554e-17)
(0.671516 -1.68117 0)
(0.308718 0.704354 0)
(1.66807 0.340678 -9.64537e-18)
(0.165783 1.19381 -1.54064e-16)
(0.64944 -0.142167 8.25865e-18)
(0.141915 -0.930224 -4.69343e-17)
(0.531807 0.136861 -1.66532e-18)
(0.0473959 -0.123532 9.08852e-18)
(0.816635 0.171405 -2.35545e-18)
(-0.339896 -1.66802 0)
(1.44589 -0.407882 0)
(1.27858 -0.498348 6.68602e-17)
(1.14072 0.123417 -1.07368e-17)
(1.27229 -0.470289 0)
(1.27127 -0.111263 0)
(0.181268 -0.339671 -1.01124e-17)
(0.818131 0.229387 0)
(0.112115 0.623699 2.61553e-17)
(0.546641 -0.250798 -1.42544e-17)
(0.483121 -0.704883 0)
(-0.446647 0.421993 1.80501e-17)
(0.889679 0.554773 -1.48147e-17)
(0.717145 -0.212512 -3.19237e-18)
(0.592043 0.329188 5.95891e-18)
(-0.491226 1.11025 2.11932e-17)
(1.29121 0.645207 -3.13988e-18)
(1.17982 -0.265597 1.71424e-18)
(2.2724 -0.895263 3.32391e-18)
(0.213821 1.40994 5.41365e-18)
(-0.303442 -0.0701859 0)
(1.73223 0.0646712 2.64643e-17)
(0.64809 1.20929 3.58204e-17)
(1.33011 0.637564 -3.97169e-19)
(0.435487 0.0448178 -2.25467e-17)
(1.54116 -0.379264 -1.27251e-19)
(2.32111 0.62759 2.33172e-19)
(1.34627 1.46877 3.51298e-17)
(1.76235 0.719085 -3.67448e-17)
(1.52866 -0.235923 9.56145e-18)
(0.756161 -0.195588 0)
(1.24687 1.75357 -2.29784e-19)
(4.10712 0.86973 0)
(2.39969 -0.414025 -3.77257e-18)
(-1.586 1.70772 -2.13955e-19)
(1.56091 -0.305844 -7.13244e-17)
(-0.764436 -0.547347 1.37413e-17)
(0.379166 -0.838294 -1.15606e-17)
(2.20242 0.583513 0)
(0.40349 -1.09591 0)
(-0.742271 0.316684 -3.57921e-18)
(-0.363835 0.339294 0)
(0.655498 0.957564 -2.99685e-18)
(0.12394 0.880782 -3.30984e-18)
(0.386872 0.241559 4.82018e-18)
(0.387935 0.78039 1.18467e-17)
(0.680259 1.3897 -1.61573e-18)
(1.78124 -1.34513 1.8667e-17)
(1.60548 -0.556995 2.85856e-17)
(1.09995 0.677953 -2.13289e-20)
(1.78052 -1.85745 -6.85264e-17)
(1.6169 0.55198 0)
(1.37162 -1.34388 4.47603e-18)
(0.488667 0.796001 -7.06749e-18)
(-0.982452 -1.05273 2.554e-17)
(0.810995 -1.31008 -2.15304e-17)
(0.570664 -0.00134201 5.16847e-18)
(0.188902 0.0209969 -9.35591e-18)
(-1.11753 0.507699 0)
(-1.76119 -1.0163 -4.51366e-17)
(2.11675 -0.998947 1.05742e-15)
(-0.441695 0.330713 1.09983e-17)
(0.309421 -0.865423 0)
(0.274123 0.311646 1.17859e-17)
(1.22683 0.328751 0)
(1.85518 -0.75406 -1.96189e-18)
(1.78128 -0.895188 1.95323e-18)
(0.139135 0.130876 4.40172e-17)
(0.435613 -0.0930319 -1.3178e-15)
(1.78574 -0.604325 -5.02558e-17)
(0.854137 1.06761 -9.08641e-20)
(1.76422 -1.00864 5.67467e-20)
(-0.296148 0.182101 -4.59524e-17)
(0.119081 -0.477145 3.84634e-17)
(2.38996 0.605189 0)
(-0.641547 -1.42257 1.74968e-19)
(0.107712 0.319346 -8.29224e-19)
(0.260559 0.93003 0)
(0.710602 -0.529117 0)
(0.256847 -0.126079 7.03579e-19)
(-0.0076454 -0.579837 0)
(0.650933 0.394597 0)
(0.833592 -0.167352 0)
(0.813022 -1.30463 0)
(0.931573 1.46419 -7.92406e-18)
(1.69267 -0.749379 -3.34988e-18)
(1.46259 0.906855 5.7588e-18)
(0.888879 -0.141661 2.46739e-17)
(0.47523 0.566309 -3.9249e-17)
(0.733706 -0.772899 -7.91791e-18)
(0.0550098 -0.159499 9.08418e-18)
(0.984672 0.488795 -3.34484e-17)
(1.60005 0.921928 0)
(1.82651 -0.705146 0)
(1.00521 -0.582452 0)
(0.571026 0.974855 0)
(0.367861 -0.107802 0)
(0.817984 -0.299327 -2.23233e-17)
(0.258474 -0.176919 0)
(0.273552 -0.998076 -3.59711e-17)
(0.0341209 -0.144857 -2.48096e-18)
(1.7075 -1.09543 -1.94552e-19)
(1.38939 1.32676 0)
(-1.06556 -0.4957 -2.40449e-17)
(-0.263893 -0.849506 2.13197e-17)
(0.328705 0.794085 0)
(1.08063 -0.284133 1.30873e-17)
(-0.303413 0.239331 0)
(-0.4719 -0.145491 0)
(2.47217 0.560341 0)
(-0.118074 -0.914553 -4.14857e-17)
(0.614106 -0.155411 3.79245e-17)
(2.20135 -0.606557 -4.88966e-18)
(1.49133 0.234049 2.64595e-18)
(2.71272 -0.0815608 3.764e-17)
(0.313224 0.918038 0)
(0.658532 -0.415264 0)
(0.472889 -0.524195 0)
(0.747823 -0.201447 -3.96957e-17)
(0.421923 0.62459 -3.65287e-17)
(0.349978 -0.314591 2.38235e-17)
(0.686971 -0.0253843 9.25299e-18)
(1.37181 0.0986959 0)
(0.435689 -0.295631 -9.92952e-18)
(-0.331778 0.0826559 -5.73306e-18)
(0.244783 -0.227986 3.3524e-18)
(2.04009 -0.00900273 3.19131e-18)
(3.40587 -0.0365657 6.37915e-18)
(0.488008 0.289587 0)
(2.36055 -0.957881 0)
(0.415548 -0.153927 -5.43776e-18)
(-0.806444 0.497032 -4.41017e-17)
(2.45807 1.06814 7.23123e-17)
(-0.00431882 1.24592 6.09812e-18)
(0.416993 -0.670304 -3.20697e-18)
(0.257311 -0.166334 3.51566e-18)
(1.57205 0.210478 -5.13845e-19)
(1.80639 0.151377 0)
(-0.240146 0.551602 6.71951e-17)
(0.160445 -0.760129 0)
(2.31073 0.715254 0)
(1.69538 -0.337001 0)
(0.235156 -0.223763 1.16968e-17)
(1.23748 -0.627355 -3.75915e-17)
(1.01549 0.330827 0)
(-0.992096 0.271533 -2.63363e-19)
(0.100176 0.0793824 -2.29648e-17)
(0.46511 0.918742 -7.13829e-17)
(1.34272 -1.06746 -5.34907e-18)
(2.80559 0.0564629 3.09621e-16)
(-0.210953 1.28325 0)
(0.886971 -0.0218874 3.61301e-20)
(0.546923 0.410116 -5.71589e-20)
(1.26968 0.315646 4.08345e-17)
(-0.362092 -0.529503 0)
(-0.710293 0.500712 0)
(1.11304 0.571656 -1.14653e-17)
(0.917275 -0.0601826 1.17859e-16)
(0.907598 0.800863 -1.65473e-18)
(0.402772 -0.193189 -4.58664e-18)
(-0.106653 0.496827 8.82752e-18)
(5.94598 1.10712 9.78468e-19)
(3.27537 -0.619774 2.69613e-18)
(3.64358 0.117544 -7.81255e-18)
(2.49856 -0.467999 5.47641e-17)
(0.777216 1.54571 2.85157e-19)
(0.666633 -0.0813815 -2.17533e-17)
(1.34323 -0.293485 -5.01746e-18)
(1.11178 -0.41511 2.59625e-17)
(0.152045 0.397278 0)
(0.178465 0.679458 6.93089e-18)
(0.503091 -0.455505 -3.64448e-18)
(0.674683 -0.138385 2.52164e-17)
(1.42317 -0.0504115 0)
(-0.815698 -1.14834 -2.92707e-18)
(2.21335 -0.610152 3.3465e-17)
(0.356553 -1.22372 2.46974e-18)
(2.22715 0.155914 -2.94835e-18)
(0.0301294 -0.272114 1.29456e-17)
(-0.75896 0.782892 -2.46845e-17)
(0.243483 -0.317961 -3.35621e-18)
(1.76546 0.0721289 3.49056e-17)
(0.523198 0.204132 1.37383e-17)
(0.62887 -0.0307311 1.35517e-17)
(0.249291 0.292409 -2.49488e-17)
(0.210572 -0.659805 1.35688e-18)
(-0.435656 1.22267 -2.46299e-18)
(-0.493268 2.45623 0)
(1.86436 -0.486246 0)
(2.19507 1.05919 0)
(0.592261 0.780603 4.87564e-17)
(1.29382 -0.46713 -3.12562e-17)
(0.201054 0.298963 1.2267e-17)
(0.12435 0.711309 -2.43024e-17)
(0.762313 -0.520855 1.67469e-17)
(-0.578454 0.80948 0)
(-0.105828 0.170979 -5.27963e-17)
(0.162659 -0.0651653 3.3773e-17)
(0.663873 0.682729 0)
(2.05132 0.55765 8.14525e-17)
(0.391253 -0.561058 1.57647e-16)
(-0.15493 -0.356594 -1.97938e-17)
(-0.122569 0.590747 4.27062e-18)
(-0.20886 0.623882 -2.79228e-18)
(-0.46761 -1.2329 2.02202e-17)
(1.06268 0.712 0)
(-0.500692 0.894967 1.60819e-17)
(0.601262 0.238607 -6.07732e-18)
(0.757524 -0.984941 1.82962e-19)
(0.123615 -1.23707 2.5011e-17)
(0.039239 -0.693493 -1.9168e-17)
(-0.77765 0.358852 2.25066e-17)
(0.201635 -0.320767 0)
(0.850204 -0.151007 -3.52975e-18)
(4.92786 1.40294 -8.20264e-18)
(2.78583 -0.765598 4.40856e-18)
(0.707231 0.838924 -1.16342e-17)
(0.790575 -0.362219 5.68364e-18)
(1.74365 -0.801521 0)
(1.38166 1.13769 0)
(-1.99287 0.156749 0)
(-0.193478 0.333604 -5.69207e-18)
(1.00541 -0.654783 4.00604e-18)
(-2.8035 -0.955439 -2.90334e-19)
(1.65245 -1.02925 -2.93713e-17)
(0.192027 0.507552 0)
(0.915071 0.574391 -4.86704e-18)
(1.30386 1.41659 0)
(-0.257804 0.0674066 0)
(0.738913 -0.352528 -3.131e-19)
(0.605481 0.0122419 2.10544e-17)
(-4.66819 -2.61469 3.30748e-16)
(1.87806 -0.806468 -8.53771e-18)
(1.33233 0.609613 7.77845e-18)
(-0.115461 -0.942653 -1.45643e-18)
(0.766389 -0.0725866 -8.66602e-18)
(0.514872 0.0749632 2.28047e-17)
(0.134494 0.211611 -3.76641e-17)
(0.389734 -0.126085 1.77964e-18)
(-1.19716 1.5104 0)
(-0.861072 0.251592 1.12658e-17)
(-0.393707 -0.511503 -9.35194e-18)
(2.46863 0.646005 7.42133e-17)
(-0.364317 1.12182 0)
(0.0936512 -0.559374 -7.12181e-18)
(1.44307 0.461944 7.3549e-17)
(0.786749 0.121399 0)
(0.953257 1.22739 0)
(-0.101533 -0.949936 2.80782e-17)
(-0.37109 0.231898 4.63353e-18)
(0.317271 -0.0299627 -2.60392e-18)
(1.17391 0.709351 2.43711e-17)
(0.671437 0.0996594 -1.41128e-17)
(0.307025 0.693883 0)
(1.32998 -1.00549 0)
(2.80583 1.01519 -4.30708e-19)
(1.76834 -0.542511 2.3351e-19)
(0.0240745 -0.123635 0)
(0.0395321 -0.12862 -9.01729e-19)
(0.429548 -0.0888039 4.69521e-19)
(3.20784 -0.853096 1.40099e-17)
(-0.10329 0.887765 1.32496e-18)
(1.22433 0.151997 3.47741e-17)
(0.829146 -0.611749 -2.89634e-17)
(0.41747 -0.889296 0)
(0.531975 -0.487834 -6.29155e-17)
(-1.13476 -0.0292819 -2.52492e-17)
(0.0466689 0.164825 1.17684e-17)
(0.459783 0.263447 -1.07843e-17)
(-0.0427308 -0.445759 2.01983e-17)
(0.0853585 -0.404636 1.33724e-17)
(0.795589 0.684225 4.53172e-17)
(1.52269 -0.797582 -3.23357e-17)
(0.177937 0.290994 0)
(-0.442178 -0.35034 0)
(-0.0715368 -0.0990696 -1.25228e-18)
(2.48578 0.00430778 -1.47846e-17)
(-0.198608 0.112379 1.73146e-17)
(0.315173 -0.0784273 -9.28174e-18)
(0.470547 0.244804 -1.79961e-17)
(0.761885 -0.208344 1.22053e-17)
(1.30059 0.817004 9.47379e-18)
(1.24968 -0.336725 4.97014e-18)
(1.92024 -0.980105 -5.66343e-18)
(1.04954 1.03614 9.03252e-18)
(0.671489 -0.00923926 -1.33926e-15)
(0.20321 0.579743 1.44469e-17)
(0.264454 0.363486 -2.33171e-17)
(0.372287 -0.0144864 0)
(0.500798 -0.55271 -1.50717e-17)
(0.101849 0.612744 2.32919e-17)
(-1.75428 0.0474193 0)
(-0.342211 -0.100689 1.91077e-17)
(2.51476 1.06194 2.21973e-19)
(1.69244 -0.467413 -1.09954e-19)
(0.000579364 1.20271 1.52181e-17)
(-0.627181 -0.303062 -2.04478e-17)
(-0.837285 -1.53655 0)
(0.984602 0.0273065 -2.11759e-19)
(0.307256 -0.130861 -1.3518e-15)
(1.01153 0.863438 2.30668e-18)
(-0.027494 -0.0356561 8.47559e-19)
(0.472045 -0.176141 -1.53492e-17)
(0.934411 0.463611 0)
(1.98257 -1.20959 4.155e-17)
(0.440349 0.369495 -5.00348e-17)
(-0.926525 0.694421 0)
(-0.0140551 -0.116254 0)
(0.522836 0.899066 -2.56919e-17)
(1.29869 -0.745509 1.64515e-17)
(0.175068 0.232975 1.58647e-16)
(-5.53658 -0.774243 0)
(-0.575455 -0.807655 -2.96072e-17)
(0.918002 -1.54448 2.39773e-17)
(0.943113 1.27787 -1.63187e-18)
(-1.2856 -0.659508 -9.73475e-18)
(-1.15552 0.498024 0)
(-0.549862 -0.734639 0)
(-3.95348 -1.31195 1.47813e-16)
(-0.083776 1.62616 1.1342e-17)
(0.487402 -0.855047 -6.22862e-18)
(1.75887 0.0481319 1.17119e-17)
(2.18097 -1.61115 -3.52318e-17)
(0.0604353 0.408465 2.76007e-18)
(3.0551 -0.53644 -6.5675e-18)
(4.09226 0.72844 1.24863e-17)
(1.94462 0.874474 7.78102e-17)
(-1.3087 0.664297 0)
(0.896851 0.216579 7.22698e-19)
(0.954216 0.507681 -4.35112e-17)
(0.192638 0.216908 0)
(0.434016 0.237127 0)
(-0.39213 -0.33906 -2.17749e-17)
(0.949167 0.454652 1.89643e-17)
(-0.929511 0.475108 -2.74667e-18)
(0.00339946 -0.205115 1.47614e-18)
(1.31426 -0.630695 -1.75831e-17)
(1.47685 1.32556 3.42568e-17)
(0.469339 0.993387 0)
(0.944065 -0.195138 -2.22859e-17)
(2.22467 0.427948 4.50445e-17)
(-0.232433 0.543194 0)
(-0.571531 1.63038 5.90662e-18)
(0.34032 1.50025 7.88443e-18)
(2.05847 1.12972 1.71209e-18)
(1.08916 -0.587951 0)
(-0.705428 0.950507 2.83744e-18)
(1.83997 -0.740655 2.90961e-17)
(0.613579 0.190004 0)
(0.815464 -0.0597041 0)
(0.264822 -0.753986 4.52435e-19)
(1.20985 0.0577518 -3.12846e-18)
(1.44182 0.57046 5.62883e-17)
(-0.13383 0.290031 0)
(0.526992 -0.570427 0)
(0.136006 1.87766 -4.26619e-17)
(1.37954 0.013513 2.02125e-18)
(2.08816 -0.141357 -3.74105e-18)
(-0.899457 0.396227 2.41588e-17)
(0.76897 0.137532 0)
(0.787687 0.21777 0)
(-0.486275 -0.182822 0)
(-0.491898 0.894862 0)
(0.194338 0.275984 0)
(0.910811 1.31708 -6.02062e-17)
(0.0547486 -0.294076 0)
(1.50217 0.284697 0)
(1.54678 0.271408 0)
(1.28554 -0.309876 -2.61964e-17)
(0.988126 -0.364761 2.20438e-17)
(0.627764 0.674374 -3.78359e-17)
(-0.541022 -0.18408 -2.44045e-17)
(0.53997 -0.690336 2.06955e-17)
(0.555916 1.0947 -6.72974e-18)
(1.73471 -1.31415 -1.3617e-17)
(0.112191 -0.376024 0)
(0.0346399 -0.147926 0)
(1.45875 -1.03496 4.47585e-17)
(-1.27483 -0.831666 1.70547e-16)
(-1.08688 -1.0673 0)
(0.788175 -1.37003 0)
(0.738771 0.3207 1.64688e-17)
(2.0857 0.183883 0)
(1.01708 0.712526 2.63843e-17)
(2.14997 -1.27503 0)
(1.12017 -0.551661 0)
(1.49559 0.507806 -3.36585e-17)
(-0.981221 0.0631108 0)
(3.24278 0.0351884 1.15257e-18)
(6.10414 -0.156006 -2.12521e-18)
(-0.359298 0.17084 1.07794e-18)
(0.658897 -0.0410482 1.03267e-19)
(0.389219 -0.232688 4.1172e-17)
(-0.650224 1.15901 0)
(-0.057104 0.864136 4.714e-18)
(0.934693 -0.0311411 -3.73911e-19)
(0.89951 -0.278736 6.89462e-19)
(-0.423545 0.0837899 -7.32291e-18)
(1.48363 0.0677592 -3.12509e-18)
(0.525308 -0.17316 -1.31729e-15)
(0.486876 0.765645 -7.40544e-17)
(1.69249 -1.18024 4.88082e-17)
(-0.192198 -0.288226 1.86706e-18)
(0.548373 1.29272 0)
(-0.645258 -2.15484 5.62223e-18)
(0.87339 0.03352 1.01915e-17)
(-0.0726408 0.0204963 5.72602e-18)
(0.425376 -0.0699063 -3.05318e-18)
(0.304974 0.295549 4.84442e-17)
(-0.382791 1.82368 -2.6905e-17)
(0.28757 -0.824181 2.47166e-17)
(-0.298048 0.170847 1.2292e-17)
(-0.150148 1.00404 0)
(0.695733 -0.616225 0)
(1.42341 -0.0561691 3.59808e-17)
(1.76714 -0.810852 7.91232e-17)
(-0.0772127 -0.147776 0)
(-1.31744 0.437576 0)
(0.820053 0.172248 0)
(0.668718 -0.962157 0)
(-0.258265 0.339541 0)
(1.33225 -1.23772 -6.52821e-17)
(1.09713 2.78137 1.0989e-18)
(0.926222 -1.55607 -7.66082e-19)
(1.47627 -0.508562 1.08457e-17)
(1.70939 -0.995163 0)
(2.79789 -0.387486 -1.00565e-17)
(3.76147 0.781104 1.93472e-17)
(1.17847 0.213399 3.76781e-18)
(1.91492 -0.627581 -3.39855e-16)
(-0.32124 0.167561 1.13596e-17)
(-0.735604 0.358414 -1.83704e-17)
(0.378418 -0.637018 0)
(0.935358 0.45255 -6.21179e-18)
(1.66005 -2.27392 3.18811e-17)
(1.84128 -0.596656 0)
(-0.932989 -0.170025 2.43236e-17)
(-0.448111 -0.624779 -2.17178e-17)
(0.483715 -0.0102429 2.27567e-18)
(0.746994 -0.618204 1.25845e-18)
(0.572218 0.963838 -2.39054e-18)
(-0.43441 2.02335 -1.03656e-17)
(-0.310967 -0.808463 2.45777e-17)
(-0.553862 1.34918 -4.06249e-17)
(0.627857 -0.382715 -3.26756e-17)
(-0.78068 -0.164204 -1.56541e-17)
(0.396264 1.27328 4.05559e-18)
(0.836957 -0.804315 -2.23781e-18)
(0.205712 -0.304513 -5.65384e-18)
(0.61109 -0.443678 -1.07913e-17)
(0.665678 -0.567539 -1.25081e-17)
(-0.34124 0.83271 5.73184e-18)
(0.168058 -0.58493 -4.47334e-18)
(1.3782 -1.0051 0)
(1.09039 -0.0338165 -3.59185e-18)
(0.862742 -0.014194 -9.30243e-19)
(0.633914 0.454251 4.04266e-18)
(-4.43517 -4.99081 0)
(0.954703 -0.884334 -2.10233e-17)
(-0.210966 0.288656 1.41032e-17)
(0.621849 -0.60541 0)
(-0.0552198 0.690455 0)
(1.0746 1.21066 -1.51285e-18)
(0.937943 -0.0188337 1.85564e-18)
(1.18872 0.0835354 -3.73895e-17)
(3.45286 0.507022 -2.03654e-18)
(6.36161 -1.10088 3.79537e-18)
(1.96431 1.37707 -3.21565e-19)
(1.49424 -0.605854 1.91414e-19)
(3.06379 -0.443657 -6.99381e-17)
(0.147849 -0.416303 0)
(0.814051 -0.450955 -3.03746e-17)
(0.307184 0.782036 4.97376e-17)
(-0.690509 1.79099 -4.67593e-17)
(-0.575537 -0.116527 -5.34699e-18)
(0.931076 0.779271 -1.59765e-18)
(0.727716 0.77529 -1.55821e-18)
(-0.680981 0.156931 0)
(1.26484 -0.0225426 2.30681e-17)
(0.122313 -1.67301 -1.18865e-16)
(1.00643 0.349069 -5.1114e-18)
(0.74381 -0.192535 2.7667e-15)
(-0.740994 0.293537 0)
(2.99858 0.296955 6.30648e-16)
(0.599615 -0.164407 9.17589e-20)
(1.22549 -0.285481 -6.34355e-17)
(-0.795469 1.36375 1.76079e-17)
(0.723253 0.215947 -8.40877e-19)
(2.22555 0.136816 0)
(1.80439 -1.35603 3.76684e-17)
(-0.283511 -0.123957 -5.05709e-17)
(0.319863 0.55266 -8.5304e-19)
(0.510607 0.216515 3.35921e-18)
(1.49942 0.409442 3.93766e-19)
(0.0742556 0.222941 0)
(0.487167 -0.162869 8.81638e-18)
(1.47293 -0.796067 6.40703e-18)
(-1.06068 0.409601 0)
(1.17143 0.107382 -1.50592e-17)
(1.20407 -0.0305099 2.7503e-17)
(0.224091 -0.168678 -1.15986e-18)
(0.212318 0.0877005 -5.3982e-18)
(0.589978 0.535181 9.55523e-18)
(0.734356 -0.201671 -5.05598e-18)
(1.56501 -0.888541 1.87936e-18)
(-0.122713 0.427377 -3.98112e-18)
(0.32864 0.133649 4.70892e-18)
(-1.79662 0.4993 -3.78972e-17)
(-0.0920885 0.112589 3.33286e-18)
(1.19715 -0.0341614 0)
(-1.9208 -3.18231 -3.56982e-20)
(1.85735 -1.52706 -1.69414e-17)
(0.275092 0.332468 2.42609e-17)
(0.864755 0.549301 2.75293e-18)
(0.779801 1.88414 1.72265e-18)
(1.13091 0.454929 0)
(0.380661 0.0688858 -7.76419e-18)
(-0.633253 1.05256 0)
(-0.936387 0.907993 2.15307e-17)
(0.563966 0.843507 0)
(-2.17931 0.756368 -2.60595e-17)
(-0.92904 -0.464527 1.54119e-17)
(-1.65867 0.731816 0)
(-0.827691 -0.502639 0)
(0.560231 -0.342139 0)
(0.185408 0.998374 0)
(2.78488 1.11974 0)
(5.36382 -0.511274 -8.3754e-19)
(2.90172 0.196373 4.4438e-19)
(0.639639 0.297082 0)
(1.25641 2.01974 9.99219e-18)
(0.455068 0.366767 -3.28104e-17)
(2.09427 -0.767234 -5.95296e-18)
(3.54717 1.5561 1.13777e-17)
(-0.409149 0.837417 -4.0043e-18)
(1.45909 -1.36524 -6.00104e-17)
(3.5212 -0.382299 0)
(6.79502 0.750031 0)
(0.9632 0.83441 -2.29647e-18)
(0.973096 -0.852022 -1.85998e-17)
(0.208712 1.27845 1.47517e-17)
(1.25553 -0.504387 -3.4245e-18)
(1.67554 1.08555 6.58022e-18)
(1.82584 -0.645894 2.64809e-19)
(2.56706 1.46301 -5.28424e-19)
(-0.333841 -1.25964 0)
(0.297568 0.273333 0)
(0.789439 0.362103 0)
(1.37145 0.80681 4.17183e-18)
(2.48314 -0.617286 0)
(0.457266 1.00748 -1.86481e-17)
(0.439557 0.504581 2.50946e-17)
(1.77436 -1.01592 -1.68587e-17)
(2.26222 -1.39613 0)
(0.358592 0.0526637 2.83787e-18)
(1.80435 -0.220828 0)
(2.91462 0.430141 0)
(0.967816 1.02407 0)
(0.9388 -0.292493 1.68839e-18)
(1.02031 0.649592 -3.23584e-18)
(2.11548 0.715665 -1.43444e-17)
(0.16098 0.0430035 6.56889e-17)
(0.585708 0.877918 -1.72415e-17)
(0.760034 -0.396875 2.98607e-18)
(0.6731 -1.25586 -2.03859e-17)
(1.69627 0.581351 0)
(0.703697 0.6314 -5.02628e-17)
(1.50681 0.355457 -1.722e-17)
(0.919023 0.665056 0)
(4.85942 1.10129 0)
(2.75582 -0.532996 1.02483e-18)
(1.24381 -0.955414 3.41113e-17)
(-0.00144291 0.49692 0)
(0.642189 0.205236 0)
(0.719694 0.879715 0)
(0.728413 0.434882 -3.13355e-17)
(0.828401 -0.643101 -2.84334e-19)
(2.0768 -0.0552933 -2.27036e-18)
(3.34139 -0.0363518 4.12367e-18)
(0.821003 0.316188 -4.44692e-17)
(-0.561318 1.63204 -1.84666e-17)
(-0.783755 -0.799399 -1.62185e-17)
(-2.18574 1.07378 2.72476e-17)
(1.00108 0.948961 -2.48967e-17)
(1.71423 -0.860542 1.51487e-17)
(0.63283 0.26022 -3.25646e-19)
(1.05889 -0.0694122 3.38376e-17)
(0.114883 -0.114239 2.13617e-17)
(1.9919 -0.15633 -6.26312e-18)
(1.36889 0.0327098 3.34387e-18)
(2.10506 0.906618 -3.42862e-17)
(-0.118128 0.265929 3.60813e-17)
(0.487106 0.0317481 -2.04257e-17)
(0.189405 1.90308 -1.08349e-16)
(0.341172 0.712442 -8.5914e-18)
(1.30895 -0.51876 9.7168e-18)
(0.0720767 0.430259 4.31203e-18)
(0.153235 0.950142 -3.24551e-17)
(-0.526083 0.206818 1.09693e-17)
(-1.53663 -0.916508 3.10757e-18)
(0.0614681 -1.14278 0)
(1.06656 -0.414364 0)
(0.758107 0.58637 0)
(-0.485608 -0.618226 -6.57866e-18)
(0.452266 -0.537342 -9.29186e-18)
(0.314039 0.732718 -4.48168e-17)
(0.838095 -0.429446 3.79597e-17)
(-0.106093 0.455359 0)
(0.739616 -0.663059 0)
(-0.434404 0.341295 1.18199e-18)
(-0.253933 1.67028 2.32539e-18)
(0.808177 -0.957692 -4.98872e-17)
(1.23365 -1.05948 -2.64134e-17)
(0.204936 0.756477 3.94559e-17)
(1.16669 1.00179 6.28734e-16)
(-0.995001 -0.53846 -2.40549e-17)
(-0.509711 -0.775321 2.05894e-17)
(0.951887 0.621686 0)
(0.66064 -0.280914 5.71802e-18)
(0.387189 0.652349 -1.07029e-17)
(0.557946 0.532737 0)
(-0.722084 0.201926 -2.2983e-17)
(-0.604551 -0.394542 1.99013e-17)
(-0.323377 0.88647 -3.21216e-18)
(-0.757594 0.545459 0)
(-0.283246 -0.48455 0)
(-0.347116 -1.03737 -3.98081e-17)
(2.18504 0.335931 1.69865e-16)
(0.803983 0.483342 3.68447e-17)
(0.101492 1.05369 2.45741e-18)
(5.88727 -0.244844 1.48922e-17)
(3.2366 0.056334 -7.16201e-18)
(2.29177 -0.673347 1.00792e-16)
(0.669697 1.98358 0)
(0.302622 0.755291 7.51645e-18)
(1.01681 0.729341 0)
(1.43383 -0.420065 -2.00098e-19)
(0.404994 -0.43143 5.04616e-17)
(1.76056 -0.851007 0)
(1.58387 -1.57996 3.56308e-17)
(0.429207 0.0628145 2.00184e-18)
(0.229013 0.570711 0)
(1.21453 -0.810586 -3.7033e-17)
(0.047715 0.422106 5.05073e-17)
(-0.612267 -0.252795 0)
(0.8511 -1.07836 0)
(1.28565 -0.248616 1.92114e-17)
(-0.138133 0.594945 0)
(-0.903696 0.432952 1.21116e-20)
(-0.589418 -0.30732 6.09236e-20)
(0.322805 0.704029 0)
(0.771463 -0.256125 7.80423e-18)
(0.226189 0.274931 -1.19255e-17)
(-0.414853 0.131207 1.19881e-18)
(0.687261 -0.328026 0)
(-0.922 1.68888 4.04588e-17)
(0.526099 0.40876 0)
(0.528523 -0.23255 0)
(0.0719997 0.838844 0)
(-0.427132 -0.562255 -1.92293e-19)
(0.0498239 0.111168 3.37384e-18)
(1.22361 -0.00953812 0)
(-1.7204 0.0887731 2.43392e-18)
(0.905842 -0.808096 0)
(0.378809 1.07917 0)
(0.343151 0.611559 -3.89991e-17)
(-0.419672 0.598489 2.31412e-19)
(0.422707 0.179576 0)
(0.566281 0.620588 -1.71958e-17)
(-0.422862 -0.541272 0)
(-0.434904 -0.0400055 -2.6835e-17)
(0.53002 -1.15615 -8.88641e-20)
(0.0603766 2.33973 1.71994e-19)
(0.288946 -0.525813 1.15484e-18)
(0.550101 -0.0572005 0)
(1.44532 -0.220109 0)
(-0.406382 0.406701 0)
(0.109514 -0.420746 0)
(0.330848 0.83604 -2.22732e-17)
(1.05701 -0.554491 -1.83468e-17)
(1.90402 -0.0769019 0)
(1.47718 0.0765138 0)
(1.14449 0.668648 3.70606e-19)
(-0.52616 -0.245933 0)
(-0.701869 -0.619956 0)
(1.51683 0.123467 -4.74161e-17)
(-0.376966 0.0757778 0)
(1.03725 -0.985382 0)
(-0.0474542 -0.651212 6.71128e-18)
(0.419628 0.28852 -3.52797e-18)
(-0.241812 0.864634 0)
(0.841606 0.687245 -9.34939e-18)
(-0.220091 0.717846 0)
(0.985078 -1.07892 3.82242e-18)
(0.0903665 -1.2186 -2.75117e-17)
(1.86421 -1.56514 1.81848e-17)
(0.127981 0.276853 -2.55308e-17)
(1.17196 0.126848 -3.0445e-17)
(0.936386 -0.990204 0)
(0.141474 0.545831 0)
(5.14147 0.0208587 -9.59984e-18)
(2.87143 -0.0729175 5.20004e-18)
(0.401497 -0.38077 0)
(0.576624 0.395916 -1.33552e-17)
(0.247738 -0.754805 0)
(1.15526 0.45164 0)
(1.13218 -0.951094 -3.72489e-17)
(1.43676 -0.655515 -4.50543e-17)
(-0.694591 0.208054 0)
(-0.414622 -0.444324 0)
(0.897962 -0.8722 -1.75731e-17)
(-0.0417165 0.439157 4.88658e-17)
(-0.0727679 0.203856 -2.93817e-19)
(1.82619 -1.09364 -2.5055e-17)
(-0.157607 0.457827 0)
(0.875128 -0.638998 0)
(2.41174 -0.359491 -1.67887e-17)
(0.479781 0.585856 0)
(0.538078 -1.16324 -1.66493e-16)
(-0.523356 -2.61964 4.66395e-17)
(0.226378 0.161801 -5.83518e-18)
(2.35972 -0.348405 6.19014e-18)
(3.80045 0.828524 -1.23864e-17)
(1.02232 0.12121 3.58522e-17)
(-0.0499886 0.488733 -3.09664e-16)
(-0.157252 0.152475 -7.74571e-16)
(-0.746572 0.563327 -1.43507e-17)
(0.0557925 -0.21478 7.60122e-18)
(0.276095 -0.23556 8.08644e-18)
(-0.223425 0.387252 -1.12577e-17)
(-0.596311 -0.629816 -5.93435e-17)
(0.513775 0.252299 -7.94866e-18)
(0.125409 -0.374812 1.49949e-17)
(-0.608988 -0.289972 4.89534e-20)
(-0.0675906 -0.705733 -1.09658e-19)
(1.09736 0.4002 2.92149e-18)
(-0.324043 -0.0862415 2.2598e-17)
(-0.100721 -0.0132559 -1.66302e-17)
(0.326 1.24093 6.93363e-18)
(0.00437059 -0.491491 0)
(-0.283047 -0.889213 0)
(-0.324167 0.807079 0)
(0.407827 0.601086 -4.31458e-17)
(0.488725 -0.725067 4.14462e-17)
(-0.820641 0.850952 -4.07765e-17)
(-0.0837574 -0.287504 -4.50669e-17)
(0.0392807 0.550232 6.17277e-18)
(1.44541 -2.14461 0)
(0.0669656 -0.0757939 6.98682e-17)
(0.793541 -0.410447 -5.7453e-17)
(1.70567 -0.902055 -4.06385e-19)
(1.20362 0.399189 0)
(-0.395189 1.68083 0)
(-0.0132916 1.47976 8.37234e-18)
(1.17762 -0.826418 0)
(0.834822 -0.986214 4.06548e-17)
(-0.828275 0.0701243 -5.26523e-17)
(2.3635 -0.709613 0)
(-1.061 -0.730246 -4.16538e-18)
(-0.057175 0.270254 2.24893e-18)
(-0.433663 1.4791 0)
(2.11102 0.351365 0)
(4.85559 0.621052 1.03291e-17)
(2.70107 -0.335016 -5.46701e-18)
(0.21591 0.449036 0)
(2.15094 0.847149 0)
(0.606227 0.292796 0)
(0.34973 0.145046 -1.64839e-17)
(-0.223461 1.73131 -1.42504e-17)
(0.349653 -0.826055 7.55906e-18)
(2.26875 -0.658614 -1.75257e-17)
(-0.501397 0.485243 2.89839e-16)
(0.901869 -0.584819 -1.1595e-17)
(1.34539 0.564142 0)
(1.97486 0.0908989 -3.5432e-17)
(-0.254532 0.887521 -1.25452e-17)
(0.501579 -0.522937 8.60551e-18)
(1.94891 0.44256 0)
(0.611226 0.310541 -2.15981e-18)
(0.149662 0.885432 1.32576e-18)
(0.562786 1.35878 -4.53333e-17)
(0.782101 -0.104385 1.91686e-17)
(6.46203 -0.177146 3.40194e-18)
(3.45635 0.0547086 -1.83504e-18)
(0.453516 -0.0793052 0)
(0.0787209 0.448171 0)
(-0.772798 -0.681399 2.42429e-17)
(8.18365 -0.418614 6.80802e-19)
(4.35151 0.174568 -3.33418e-19)
(2.16534 -0.853205 -1.25726e-17)