/*--------------------------------*- C++ -*----------------------------------*\
  =========                 |
  \\      /  F ield         | OpenFOAM: The Open Source CFD Toolbox
   \\    /   O peration     | Website:  https://openfoam.org
    \\  /    A nd           | Version:  7
     \\/     M anipulation  |
\*---------------------------------------------------------------------------*/
FoamFile
{
    version     2.0;
    format      ascii;
    class       volScalarField;
    location    "3";
    object      p;
}
// * * * * * * * * * * * * * * * * * * * * * * * * * * * * * * * * * * * * * //

dimensions      [0 2 -2 0 0 0 0];

internalField   nonuniform List<scalar> 
65364
(
89026.7
161022
91613.1
148827
223063
213557
155464
48801.9
53054
132021
52588.9
146720
201810
178550
212565
215144
141871
85336
169884
145381
204991
64389.8
205760
211158
168968
169193
84428.8
137522
182321
125632
25593.8
49643.5
161378
94548.1
79762
40092.8
59926.1
179110
92575.9
218476
205831
127091
175992
96576.3
114310
65715.3
117816
162416
205846
156620
170549
192427
146757
198462
168422
68526.4
128903
194705
205057
152289
198397
170511
190911
97588.3
93499.7
109896
192398
175219
198769
91017
172235
196792
82929
102699
53351.6
200355
206158
124424
178336
133506
149413
36230.2
71542
191676
215462
220029
213411
180415
31070.1
123353
183148
20348.9
38209.1
195383
173528
20253.7
146763
80123.3
204952
53895.9
206755
165830
219952
225768
145053
73211.3
186787
163719
23131.7
205331
131169
186756
87418.9
144615
179712
181050
147520
138198
64231.4
179311
145324
192772
36781.4
18748.6
95142.2
193035
144699
163633
177360
126783
117563
159989
70577
120991
121825
181176
176414
90757.6
158467
149898
149255
143609
83566.3
73804.3
89802.6
143557
195348
189244
92451.8
23767
206726
160309
192812
174915
190448
135101
18106
159780
194130
210171
106984
3631.15
6530
192454
175934
55198.8
105321
160970
202671
160240
75552.7
39746.8
89677.8
153853
194336
60487
194817
8500.12
110598
188182
212237
182507
204328
137993
135640
81426.1
96796.6
73677
132811
41611.4
20652.2
105191
198744
169525
187793
38043.2
75081.1
58095.4
160214
126577
197357
195523
178090
102445
66955.1
179004
142970
85527.9
162677
160066
155976
37847.2
67219.7
102216
121953
71547.8
25230.9
31740.9
111550
147675
113580
40085.8
129227
18263.9
34295.1
170837
164726
99357.7
160802
39077.7
131314
69500.9
201179
180702
223320
219169
20079.3
176462
33934.1
93099.2
35440.3
36198.9
38391.8
70898.5
35654.3
188597
152326
186847
198053
52645.8
166413
206347
224830
220748
103509
164738
158678
204064
203532
215295
175608
87718.4
185594
47758.4
153209
130619
205258
162713
203535
161013
199233
193982
132586
212398
32391.4
175530
114912
33364.2
37212.5
112858
62224.2
53447.1
97632.4
137660
192879
129799
179185
98169.8
97127.2
175686
193977
139116
97013.4
151369
204936
127624
169330
190893
22752.9
137425
192884
213736
216583
152756
95183.4
99016.3
218272
195263
197217
185806
51975.2
27017.6
191526
117621
68120.9
103873
147277
180854
128686
102129
88999.1
128461
185162
129341
59430.7
111304
39988
143233
121699
200038
185307
59815.8
33845.7
47277.6
204393
74300.1
174040
210212
102674
56069.4
125423
119680
67091.1
23316.8
122098
176650
67935.9
201083
149306
27752.7
192.116
136327
195885
207445
75365.8
201750
42414.5
76830
138322
69931.2
36435.7
83699
154713
169056
133275
127407
136557
186729
48097.1
26513
149990
141627
225343
176888
220615
32490.1
97870.5
162441
83756.4
103498
151212
84636.1
140758
29189.6
54173.5
184281
109783
174603
206077
167371
151468
207805
177521
196236
192685
144679
170726
198097
208581
200278
179794
65098.2
190902
175088
163211
89457.2
85340.6
144516
211313
212058
85146
81885.9
70992.9
36875.5
64021.5
32721
142110
194896
204405
197714
170142
203872
162966
91797
58946
186984
193910
184158
73702.2
203809
175003
155369
28772
97935.6
124179
179642
38598.7
19596.5
214391
209079
190726
186511
94689.4
199565
125512
141236
151149
171802
112486
124196
77708.2
209955
178329
66441.5
34504.3
134661
42313.6
23343.9
149977
25135.4
161961
170546
209532
170445
103443
131657
66974.9
116529
143639
197546
171283
90483.9
148504
19404.9
154810
159113
96548.5
203580
168502
163689
98447.2
160891
203795
205418
134535
196944
159387
160391
200203
44492.5
205967
152725
83123.5
168135
207383
210759
147212
204871
101484
42029.9
91779.3
37269.9
179862
211658
199875
188303
206983
169138
207148
204198
223054
217812
21830.5
202757
209966
208972
203491
175326
113911
45402.1
166128
65784
108421
174145
192907
199664
179069
157769
160393
21699
207504
118395
123721
69932.9
97192
163502
31979.9
123966
195790
72667.3
69665.8
93913.2
45574.3
130338
32849.5
128116
121016
67047.2
94652.8
68155.4
151116
213782
197557
185394
22072.5
42271.6
200473
182153
66836.6
216909
152124
97803
168609
204937
119803
133738
138901
127036
183507
217806
215702
154933
95046.5
207057
194878
125991
200757
225456
220177
91795.9
60765.2
207522
167905
147868
169878
24124
25811.8
52633.5
180135
205514
191952
199705
58218.9
5718.44
10500.4
160248
35069.5
205306
208947
175787
11213.3
133619
213013
118316
65205.6
36773
167663
141601
79459.6
75049.8
207253
182631
137212
201461
115907
95057.3
29243.1
195570
211652
170216
10858.9
6230.67
62600.1
170098
104545
170263
81826.3
203757
130915
185488
187827
88487.7
156578
125852
206051
209451
25161.9
15134.1
27827.6
186764
127083
179027
173877
130460
163527
101551
98285.4
132764
139625
209595
197813
177636
41128.3
21569.2
48868.5
204414
200810
215608
161695
200318
71218
154582
118642
18125.8
35845.9
157054
88084.4
171205
149161
121540
173890
195502
217984
15169.2
80250.9
151318
137124
182749
55367.5
205366
185267
203266
205197
172746
194716
40345.1
126525
203781
218855
83312.9
35227.8
16630.1
162946
102725
77651.5
32335.8
81435.6
135921
34552.5
39398.2
126458
72507
33885.7
48208
32274.3
200055
154704
87502.4
205251
192369
215271
36289.5
38726.3
93424.3
92417
166882
196776
138683
158630
105176
190314
136835
131511
186324
197092
75113.1
38342.6
87326.5
111972
145263
58350.6
111093
27344.8
157541
71850
134870
24729.6
110009
164704
74525.7
134705
86875.2
155493
134233
121188
158756
42514.7
202275
74961.5
211039
181287
35920.1
138025
64954.2
122907
70941
72173
130354
146874
189699
122421
70623.5
185375
201213
160020
179912
107981
142156
76079.1
188346
212587
117059
13471.1
171671
130059
17711.6
33006.8
126657
185259
98388
149250
201944
155091
28534.5
172709
115951
84463.4
44619.4
179552
150969
93483
186508
97749.4
196881
100502
172839
113850
50826.9
52724.4
112180
170261
71256.7
66975.6
203207
199935
213529
198629
58850.8
184317
142665
179319
210127
207170
222344
217878
147925
65515.2
113240
205221
208255
209553
44329.1
214254
209028
149278
199549
182098
112486
69479.2
35849.4
170336
49750.7
41024.2
110973
174986
149335
62683.3
187005
90536.7
148562
191874
210165
222140
214998
184492
194626
209140
212688
23093.6
159048
199713
3201.36
112200
191585
79518.6
128942
184653
167551
39150.6
62683.2
62398.5
110038
164177
184644
136672
28799.9
163558
187895
153517
61564.7
112412
27291.8
95367.3
86670.7
207440
175931
196596
182951
85293.5
45200.5
142294
218275
216185
152627
218730
207418
67430.8
37662.2
98912
103374
185798
163679
151119
196851
216223
156860
177671
207557
67530.3
34702.4
155462
68786.7
124621
147059
194513
130847
218647
216579
183107
206417
152131
146410
208371
184304
95912.7
69010
204205
213449
31189.1
84556.6
154266
172866
202321
206667
133508
76288.7
169787
197524
194717
70795
123318
217220
214725
68582.1
195272
168749
66696.6
88982
198193
114817
192494
197244
197606
219629
135416
140385
201995
196166
32528.2
16074.4
197836
97457.1
83897.5
205526
217784
175572
48509.4
27290.3
199348
129118
96669.8
50318.7
154648
193061
97117.1
96854.2
144583
84066.6
176046
207810
123482
122840
153285
204172
172426
192614
58116.6
33034.2
197720
198751
38271.7
18911
167271
202183
148998
43171.1
22084.9
145291
197356
172776
148572
72517.3
21445
79708
167985
205090
177687
148270
69016.3
203860
33628.3
164568
99672.5
145371
199966
205244
71707.9
91709.3
176950
157316
72264.4
68304.4
28888.3
209699
127084
204924
208464
159360
37171.7
34937.8
202508
182154
159764
197308
195284
192816
92927.2
161510
140065
153643
90358.4
190625
209081
215846
223522
153409
84427.8
127102
25969.5
96198.2
74078.9
152826
105179
165195
202718
31986.6
191793
29222.2
91747
99159.2
51756.3
168178
106238
202430
162210
19431.2
9096.42
195122
135621
193247
112060
169732
185799
130414
209050
30595.8
17805.5
36098.2
42575
76354.6
187270
83992.5
71531.3
69452.1
134562
30762.2
123957
174279
16169.6
134469
189576
204562
166232
183692
215635
204390
178434
182559
173358
31810.9
58679.2
66017
146833
80700.9
202143
135463
193375
37213.7
161762
127565
81715.5
220666
74516.4
175035
124256
39569.3
20275.6
33563.9
198040
45273.1
205797
105445
115815
145461
82213.6
147922
204805
204586
87018.5
48565.2
151155
200109
201463
101331
155925
35991.1
16703.3
64099.6
204777
62642.3
35009.6
164795
150768
32422.8
82874.5
151408
155042
84595.5
142320
17882.6
92548.6
160210
150460
177369
122591
136046
33878.4
49285.6
94911.9
38858.8
70358.9
183165
158446
38006.6
18919.7
83258.3
42837.4
179190
208332
97269.8
52653.3
85466.1
153404
205069
32381.7
61788.8
18062.9
206203
219005
133400
150115
60535.6
160430
102154
93432.2
170888
152461
177837
116057
70890.1
190293
190997
199194
206305
51496.6
92191.2
96739.7
21831.5
222033
217256
58625.4
93869.9
146154
82002.4
150072
128156
67958
155679
194476
149543
175385
45109
123602
6457.37
129443
185990
206624
185839
128489
185903
26509.7
156353
87850
137652
135144
82093.1
119823
107004
147800
209854
90275
92461.4
164932
193579
167673
187203
128378
186461
211028
215087
78211.2
143723
155303
91484
130989
73734.5
126106
205498
149248
132950
209541
180138
32010.8
67272.2
188929
154641
161264
194682
168295
189455
207011
170529
185509
210875
71014.1
128159
126578
200416
205268
213092
211518
157589
129853
190360
209517
105418
216231
86198.7
131609
138113
186116
129007
201265
212989
214092
98091
51056.5
116322
205476
192384
140184
198335
204093
132788
181057
56059.8
194558
79894.4
195827
116071
170080
212995
196701
212146
210602
209073
212484
87399.7
94738.3
203894
157282
89260.3
198919
10575.7
21416.3
181135
201553
154227
153057
200430
161756
175368
152529
127682
93335.3
159149
53144.1
175762
156102
69326.8
198155
115654
199298
204563
193010
207963
82659
195722
181469
175574
177351
119784
180718
122126
186760
134282
24986.2
154187
197230
199588
140037
74675.4
188434
128006
124392
217363
215443
100505
176248
110688
206621
165492
75457.5
207770
202669
194399
215783
65420.8
113714
96472.3
14328
28228.3
182977
125502
85592.4
37088.5
99028.2
162993
110388
172504
99013.1
54770.6
214795
202454
74886.3
94219.8
212704
215894
188785
216403
117124
130841
21465.3
41277
116227
131674
72925
10999.3
19140.7
194572
189892
81025.4
44923.2
220436
201556
177419
36017.8
163413
93841.7
8069.75
15727.2
61722.6
33873.6
166372
23444.2
45703.3
7800.5
118717
68854.1
13966.3
180273
23895
47136.5
92696.9
95042.6
157489
152625
160823
204913
83676.6
150253
97639.1
153348
164158
143653
196520
101044
78259.7
205212
77438.3
203411
187070
201544
35940.1
205176
104247
167719
193799
181747
204720
204813
175476
166520
168681
102023
71549
155654
97737.4
164369
209957
184411
162498
188861
80852.6
107973
197323
170254
18240
68276.2
118056
171512
172617
28900.4
173212
37448.6
186961
165222
118863
163656
93775.2
187164
131123
81717.2
45543.4
118699
174010
118060
209592
9210.79
100631
54594.2
106727
82820.9
94871.4
93399.7
193601
140977
88900
165428
41083.1
87779
202745
102059
171794
91031.6
155251
205220
125033
184232
113287
147935
177761
191204
213629
60654.1
111763
153506
139381
77632
143687
189581
13182.4
23251.3
203134
163617
67575
148378
202948
22567.5
128955
12233
32748.1
66973.4
171167
138956
193949
46158.4
25272.8
66130.2
168601
105194
132722
100971
189110
132661
139919
205340
35543.1
130290
146387
221391
217694
49539.4
87271.4
89958.6
196004
167674
43017.9
171040
116351
91442.6
70543.6
53115.9
205500
12807.5
41722.3
23061.8
32964.2
152005
144871
182433
222395
210594
161333
200508
156645
17470.5
16815.3
33723.6
117505
199807
189809
203232
156972
198830
177172
199156
110746
128519
197485
102390
51557.1
119029
115654
140744
76604.8
188139
59331.3
132674
73850.2
125207
130180
162121
106933
172856
169055
118907
171004
41769.5
62342.5
109112
87146.8
53748.8
110966
165601
144444
97015.2
80429.9
166278
12965.6
86626.8
47725.1
93966.9
31499.1
78450.2
42091.8
205812
104749
58266.4
93908.1
138874
201116
154965
124586
146911
80395.1
136887
211263
179184
56258.7
31465
121114
103572
157046
171439
144794
83526.8
13457.7
43793.7
16319.2
141360
82133.8
141204
88644.1
46649.4
202407
38454.7
106551
214818
195267
192475
149057
120721
19840.3
11219.8
215653
201046
100987
112721
174846
110035
22715.8
44950.5
121937
207194
133413
189019
136306
117063
176201
164564
164606
97683.8
164940
199267
167460
198698
179920
197878
206237
205654
17896
68167.5
40973.9
73814.6
147555
215133
40997.8
92422.8
97478.6
161468
203233
182405
121451
185714
168332
198321
134682
189428
146289
186483
142145
205329
164996
111389
178412
119995
87763.6
124012
202006
204878
162495
197349
179087
124931
59976.5
78711.1
60690.6
113812
172518
81562.1
63665.6
184356
130163
189624
206165
199151
150992
60138.5
197354
31158
57789.1
205191
192339
210236
199427
138984
23424.1
46154.6
124266
161533
198127
212909
181684
120223
126115
95937.2
162336
105077
91151.3
200894
159596
71283.2
182176
111295
131623
78491
133954
192260
69210.3
49951.4
206824
175962
25750.9
136425
201457
207981
159363
200200
150428
89420.5
40762.3
109900
171335
148358
62196.9
195445
168855
173116
204762
164759
205201
104345
173329
200589
205452
38700.5
127689
161469
130084
90740.3
205312
145367
81573.4
146354
73623.6
197195
176522
73566.6
162162
164390
187286
132078
187125
46787.3
186266
142301
205240
84880
177282
124317
164928
5805.63
3042.07
62808.5
106616
161276
139337
26567.8
13077.7
40939.6
100438
171426
112345
175006
145895
144390
198915
157565
195004
199378
43219.6
207418
167920
178340
166378
67717.1
33918.4
38837
208945
170963
184375
181066
99841.5
216695
209115
65312.1
112129
170332
132289
217134
156814
213330
210589
62097
196420
107845
191054
129263
99802.3
27177.4
51406
187133
137023
43008.3
22356.8
183348
203357
107467
190447
13945.7
7522.84
131511
69904.8
35302.5
205205
74623.8
41687.9
199812
167127
192881
163993
98261.9
145286
195426
197560
150917
89568.2
95518.4
69692.3
144148
101338
160742
200712
169810
206565
175937
176210
89438.9
163669
185648
79947.3
52584.7
89163.2
171992
134946
155225
84992.2
64841.2
153863
197873
63887
201950
154582
31317.2
103058
169549
12095.1
196846
192834
152105
96863.9
168581
107562
190198
19421.8
36114.9
95498.2
161666
205276
24285
198324
165667
132924
166004
205125
211529
213709
127069
78940.4
42376.1
124935
205868
62490.6
42321.2
151158
215576
199982
161659
147696
90971
204211
203209
103177
122900
154503
100083
33846.5
64244.5
77040.2
35163.1
110437
161820
170003
3944.91
7268.77
79001.9
171529
105290
86993.9
97182.3
178417
12278.9
25249.5
205248
209831
215263
69682.6
5944.19
158924
196229
202088
174552
170447
181509
166347
112651
42299
111666
47232.1
205048
197099
146563
205476
129367
187572
164508
176356
182992
15735.2
204863
88746.3
222060
210729
91581.8
158806
192187
203579
155382
125578
22621.1
170208
101267
161287
128141
110579
204321
112902
137522
54707.8
122220
121400
185041
182410
79719.4
62540
17325.9
173093
61964.3
104955
74796.5
140069
175764
160147
135560
97435.1
163972
162541
206859
173029
107954
171568
153509
87827.5
135571
167738
179613
126411
182231
174124
191141
91109.6
158839
91272.7
157982
210744
201194
108381
146504
76471.4
156819
156057
133571
76741.3
194271
188080
145652
78166.9
105056
168434
104617
210672
195335
176859
196087
60836.1
111186
169706
159807
111506
9986.14
203154
190118
192255
125705
178686
66613.5
118588
161406
32328.9
42047.6
65976.4
17601.9
154872
13563.8
152315
51090.6
91679.8
99148.7
51567.2
78567.8
207338
90863.2
163133
98522.6
43351.3
192686
140942
40329.2
197639
50559.3
26087.1
145147
58121.5
201458
187867
207133
164221
97864.8
131221
196305
210961
37105.3
128816
178184
101524
21686.5
205199
185551
210840
184048
201620
161017
79457.8
162940
122329
180105
126717
39157.5
161671
20059.2
211349
179281
53173
91348.9
157628
166531
208114
221078
20014.4
174309
124999
14720.5
198898
104670
208705
217314
168629
205195
155802
150494
81391.6
162874
61443.7
205763
92423.4
215607
105833
55210.7
60006.8
210221
201823
85510.8
44896.4
29515.2
205097
203207
168054
196346
145973
95915.4
159788
98730.1
54307.6
77280.1
109483
171194
74558.3
134349
192162
121345
122267
179596
205130
200037
92634.3
132545
176838
33918.8
153969
139987
212341
84861
197731
149195
135378
219792
33377.3
66691.5
178562
16382.2
30842.8
162924
107964
101138
161338
198299
59746.8
111891
205111
95193.5
97237.9
163732
99491
192841
28068.5
50472.8
207962
57775.9
192570
204697
208357
220713
99138.6
163086
98414.6
71822.5
197991
154121
58739.6
213479
163666
101941
105305
132861
54312.2
149624
199134
143654
205545
102189
153756
191628
146574
169498
126791
44122.1
57484.6
47807.7
92452.5
89801.5
163871
201477
140338
193267
153897
29480.9
179714
219676
201582
155354
127254
161055
190610
152277
171651
152439
62714
48421
131586
82062.1
174749
98435.4
47466.4
75439.6
151913
99039.6
1958.68
37734.7
191933
139178
80590.2
147118
55255.2
99698.9
171473
154543
200473
154140
72390.2
166823
52899.5
81138
78112
141660
86678.8
137539
170459
104282
128250
69125.1
176363
184145
206279
132216
71283.1
134719
182629
171321
182411
59872.1
109614
53032.6
101213
155422
199973
196899
189669
111151
205223
89459.5
117997
151244
199773
66025.2
191608
210991
137756
138408
73599
100292
154543
30597.3
20797.4
161472
187955
174542
141584
205359
165375
199864
43103.8
206717
94117.5
133959
70355.3
193199
204002
153865
48139.6
159678
130531
12141.5
93118.5
50234.5
197570
111663
166780
69015.4
80402.8
88461.8
46463.9
71086.4
121829
183778
142871
78694.9
158397
195694
92199
51634
197298
99492.3
156443
101635
217953
201544
27942.5
124314
206620
176368
202411
206480
196166
49715.5
215169
217730
83932.3
135396
161278
190650
149162
72134.3
37036
111396
225339
220601
131106
172304
33097
205323
109677
181477
212223
196598
82623.9
150785
182345
149288
67613.1
174350
157346
132648
197235
147636
125043
139179
96490.2
194905
199390
210194
160690
86433.9
145431
184167
62042.3
100295
174281
8747.92
4826.8
101575
92876.4
211931
197574
119518
87041.6
181410
172409
195937
157338
210630
216653
20956.8
143194
169273
196536
58233.9
167570
192075
175737
107448
178783
206061
169363
182867
126301
52196.5
208860
157868
38606.8
69694
42307.7
81877.7
208576
218042
167934
104516
180892
118046
156841
119314
175376
199126
42008.3
12497
197863
81658.6
202609
151927
156204
100623
106461
178677
126127
184082
176665
191760
206406
163231
99234.3
205294
156010
205415
210295
86390.1
152392
138947
133975
192483
200619
104094
132387
51818.4
192447
206077
33752.9
62100.2
33118.6
89400.5
186749
40032.3
120432
157073
163122
171415
193014
115971
92997.3
170735
144679
54995.4
23920.1
174348
207247
197638
119382
175424
49171.4
63108.5
120670
56528.3
87526.7
172654
207686
164050
209263
145264
164056
103446
146536
125045
43702.4
154583
176920
113715
175724
179173
182845
164759
153206
200571
96847.4
205220
216950
89236.3
53707.1
102819
64127.8
35839.9
124385
183984
178021
161347
65052.8
35130.4
169618
194348
217064
211108
171488
110264
170434
109357
35799.3
188698
96107
119085
159774
146303
135722
76832.2
114707
197004
176388
128237
56318.1
42436.6
92467.2
145542
141181
219808
83566.7
153241
197089
214547
174714
31069.1
200465
217984
201758
85619.5
46465.3
192873
133895
205219
180483
185979
160812
160043
10710
216676
211453
84644.4
142400
71701.2
94397.3
42467.3
196244
145519
81148
208932
58170.5
109795
170758
59217.2
42636.3
59840.6
109189
40181.9
34479
56526.3
100911
162200
77158.5
131486
188540
123430
193836
35632.9
166487
105766
33313
122973
209806
185978
140278
42485.2
78043.6
152110
92630.2
185115
18777.8
38323.1
153646
51038.2
24757.3
17050.8
204464
129854
187726
145982
89913.2
217509
102901
166099
217582
145805
197334
129295
205251
103544
57823.6
137812
152013
137588
195354
135515
215367
129493
204959
162441
47241.6
164583
124122
69957
207285
103823
196733
202312
145958
40921.1
22627.8
216544
182381
173251
154376
36348.4
26876.2
51961.3
23230
140947
160699
92873.7
84463
165066
109890
73253.2
98438.9
65967.1
137112
179626
136842
199297
208012
145867
78373.3
173534
111023
221404
219896
187886
216473
213546
212651
59083.9
219675
49550.6
177709
149860
100134
118157
219593
214896
56870.2
122756
181646
125879
102445
50434
50567
87447.9
47679.5
168843
97832.5
201723
209279
60307
155802
122499
69206.5
25010.1
192599
65967.7
124650
113148
174546
134556
172862
199459
164948
205728
133928
154987
66454.7
114157
174085
192711
141398
202488
147421
148512
129920
205273
73246.2
224924
208311
175036
89545.6
49815.2
138389
168979
220680
160662
93908.8
219571
203605
55851.8
99346.5
153746
180992
27644.7
97609.6
24472.2
217788
98350.5
150624
73927.2
76403.6
122989
44222
110060
166501
186098
209436
121757
208796
65103.3
33938
110960
104158
96955
163223
137983
170781
208740
68258.9
194782
140567
181244
179814
174571
151424
155159
131578
74452.9
184513
96993.2
59106.1
39383.4
62004.6
116323
95013.3
160678
188803
37837.9
32070.5
32490.7
32608.7
173187
63553.8
33144.6
157917
219409
134840
155518
60787.3
166813
181880
91818.8
184893
197850
192822
178073
153932
184256
156232
164236
191652
137056
188674
116420
154065
180796
140358
137885
96553.4
162419
101325
152420
5880.1
101552
84380.4
157887
201912
180518
96643.5
151403
98304.9
36185.8
64481.1
55872.6
78215.4
142110
174084
89886.4
153384
141628
194244
182686
210110
72004.8
166933
213666
80483.3
146887
65200
30738.9
155535
135477
37885.6
7314.25
13122
106823
203177
213039
221708
183434
32733.3
206130
21169
32742.4
53247.8
101895
29919.3
78752.5
137301
197268
148341
193385
202310
213141
32016.4
191330
100551
56082.2
200719
86887.6
13528.8
154945
128214
188358
112595
206805
8633.32
167080
88825
68213.1
77552.5
104589
181137
185762
101749
137875
202397
135512
56866.2
107565
69377
118864
64042.1
46034.7
141232
189533
130132
134700
177473
149648
194807
16128.2
142842
78788.9
95776.2
182984
218888
179837
123178
84727.9
141657
83210.8
150771
36508.9
77398.7
90894.6
167500
206675
195066
210416
125671
149569
80799.8
149677
82478.9
110818
163878
217067
220451
10062.1
145485
10724.2
149678
21277.8
11030.5
215782
158163
88902.6
130508
179118
203765
103059
159276
29740.8
138927
222960
216287
205303
185933
127455
216622
101446
52956.7
147531
192088
151042
152268
134284
28477.4
55439.6
128922
39703.1
60946.8
185480
133730
165490
203897
94553.1
137325
192284
26160.6
222729
210181
197769
130172
177537
193968
192717
147367
155104
152900
193156
57054
148436
219920
177042
209936
205205
218914
215206
155593
33091.1
178040
199199
196513
171435
40662.9
22844.4
10662
19134.8
46854.1
129969
165740
80926.3
140890
154241
196057
79826.6
213008
200475
204114
210817
159915
94131.4
177101
117817
81232.4
205619
189870
22483.9
139436
138186
78201.9
200943
58393.7
143643
144271
194390
131645
67966.7
121467
219488
161138
57432.4
107478
97586.5
163385
43292
90828.6
198652
171779
58464.2
103442
52050.1
26924.5
222143
218179
92200.3
160491
182848
209748
205323
201031
123538
113894
205041
142757
225386
75769.5
220550
186606
208594
194167
181018
32392.8
225478
208190
220280
201390
45692.1
190520
133595
30056.6
194144
22252.3
191440
138939
82911.1
182250
164493
74576.3
130989
145136
91027.6
190296
147683
91661.2
124615
190653
63711.6
135400
205073
58067.3
169082
106627
169286
80947.5
153409
6947.14
161864
107644
56102.6
209020
57576.1
17634.7
33779.8
62323.1
215643
213978
178197
68994.3
38499.2
180031
117154
162446
93700.5
107868
206921
175936
92654.8
157230
165590
140812
111917
95080.7
148505
166966
105690
161235
41020.9
183714
33724.1
209246
205330
4995.78
60842.7
116123
129292
106051
103336
166414
20014.1
41555.6
157171
92647.1
159961
31408.2
7457.2
208554
215699
78468.2
133655
206394
203095
186529
205131
112251
166898
129702
216558
221823
210560
157579
193153
209144
33882.3
17111
131402
215175
97279.6
158690
200335
130813
65341.4
17223
35382.2
168266
212370
215605
209506
218311
59078.8
207558
217016
54016.2
158964
90879.3
168507
66066.9
114872
101022
148924
191346
106482
118435
65725.3
171416
108839
192604
158835
93761.3
184803
140098
186317
152083
194497
78001.5
95237.5
4965.33
9113.04
185010
125507
131161
166912
97703.2
173327
53001.2
182151
101510
200304
146214
197935
108006
219534
187436
210402
180304
65957.9
36845.6
94576.6
149706
136164
118102
181648
81206.7
135555
80545.1
139691
201311
156734
147215
79433.6
195903
152129
41164.7
30729.4
201815
184436
174476
141847
208329
198793
40030
77813.7
25204.9
173360
131386
72167.8
190992
58937
184306
86229.2
151247
184132
204992
218871
161465
204057
37628.6
86945.6
141388
109309
174972
222988
210859
174995
62787.3
198574
146521
178487
167580
197922
145098
208230
19397.3
118345
207086
219177
140367
91919.2
159919
183444
182626
12827.6
22695.6
211425
106581
60099.1
179631
117798
71423.8
200356
187048
89324.8
135185
81788.9
46880.5
132262
162442
196346
215088
22698.3
109281
21013.5
200394
134813
86341.9
92806.6
198082
205543
179332
223145
216643
137607
45286.4
158245
141743
122481
205346
93638.3
169150
106567
160409
109581
89060.7
33187
175802
166859
191144
122523
68532.6
41165.7
176647
75689.2
194113
209956
198955
139605
152566
103078
96080.6
151705
205462
67081.3
175865
122676
93804.7
142602
76338.3
94885.1
192964
110302
168152
160265
190198
72735.8
68618.1
179613
208517
94296.1
160090
50721.5
28187
155708
92800.1
113997
196499
145395
89158.7
156132
43918.1
83375.7
51059
96079.2
10194.3
18315.4
101174
56191.1
18568.1
205370
152617
147030
82222.3
11859.3
225271
122921
220914
207806
172095
80236.4
149360
205933
151293
113190
96497.1
119468
66907.3
209214
179199
181578
14989.1
126094
75699.6
198766
64469.4
58183.2
133357
144194
195346
200633
159582
207397
74401
130178
80282.6
106932
180163
187340
127923
129291
22583.3
44276.4
149715
37044.2
124306
153873
54491.8
193641
159343
132727
30936.1
57457.7
32049.3
91563.3
6885.21
212042
211489
206638
192436
148250
85547.8
61687.5
112803
89460.2
153909
130432
66186.1
111385
7835.16
4276.67
213538
129070
64161.2
93008
163586
220332
202518
131240
95252
162140
207527
205142
123890
182032
214921
103453
166706
204821
202682
180406
77498.3
178619
117105
57074.4
191066
79418.7
41825.7
208505
173842
30847.9
145728
32253.6
60412.1
24597.9
126488
80531
149999
155643
71487.1
205085
200510
202472
171531
207432
183435
25831.3
113634
193973
95933.6
209973
193743
124335
51955.3
28968.8
43753.7
132589
211388
159748
93657
202163
193131
176149
113594
212049
49912.7
54648.2
170887
219991
144482
77275.7
205205
193465
177397
86115.1
120962
89001.8
164684
103551
148276
103698
109792
137833
90327.8
51246
187521
146785
124403
34196.3
31039.1
65812.7
199785
214750
17752.9
67192.8
166774
206475
166401
129595
209106
31793.1
134674
23270.7
216219
144667
196413
203949
151032
126522
171429
192684
21892.8
72922.5
40363.2
86638.4
141029
197100
202207
35574.1
65981.3
214355
213403
185698
135102
173015
149523
174399
177879
111730
115410
98816.9
163950
110785
24746.2
186329
141570
203540
108283
40329.4
190632
147457
97023.9
161696
206597
213397
199532
124726
183119
20017.2
196565
64544.2
118746
187708
74760.5
60086.5
168658
196945
94239.4
47486.3
97356.1
168269
29498.9
193206
183311
64700.5
56692.3
138597
98989.4
109608
37174.3
16209.2
31799.9
195512
103808
196284
214699
30731.2
171212
217273
46627.4
215042
79815.3
45449.3
133358
117145
166625
105090
85250
4034.61
65445.9
161082
103683
176056
202433
206828
15572.5
206147
48830.3
27340.9
10205.5
215917
219921
211440
105945
59938.5
218121
206528
68895.7
38192.9
152861
41049.2
79339.4
175327
110187
93377.3
161638
17067.8
144983
79706.9
161751
169702
208298
71185.7
220054
218679
213315
19423.3
195227
149489
220277
219537
159762
140065
198990
150080
151308
186314
192693
125134
100014
122128
182580
207085
190890
146523
78997.8
191123
198823
110529
175149
16921.7
31262
16242.9
130061
201385
189943
159823
179541
221082
215200
209610
190784
193666
160341
205114
168826
95547.7
50581.9
147403
91065.9
46194.1
200137
162066
113399
119770
32686.4
122742
160682
64378
208121
20963.5
41575.5
163625
95204.1
177066
177587
179041
196766
160356
172187
80862.7
134277
36448.7
70071.5
84225.7
139794
143147
76406.2
160771
161506
75252.5
41507.8
30825.1
154498
187178
116499
168809
94867.7
164134
163976
202932
210808
211338
56702.7
145249
4026.07
198073
141701
198718
152479
139783
6524.4
45989.1
164255
148965
83677.1
139131
191127
77225.8
94565.3
132837
49788.8
54017.8
147971
218189
201847
180741
181059
70564.9
159865
195124
74554.5
125889
55421
101629
142415
78659.2
175887
72686.9
124987
161969
209598
181680
76421.5
100670
42913.6
88666.1
134795
150946
55282.9
56786
102357
121964
203228
53994.7
29026.8
89193.2
204159
166795
182601
142096
111300
151103
201931
126736
95861
168549
207198
67600.4
120551
201600
167105
190870
81802
149347
207558
168130
200157
106594
61800
56429.7
219239
203199
192779
149371
145501
193604
182127
183233
73065.9
128094
39988.7
163188
92179.4
160919
160875
194477
153031
199739
200329
129864
209171
195430
214277
201568
171973
207096
161664
104100
51230.6
122267
144958
185820
189540
65569.5
113512
123613
200781
201622
162129
201926
206746
164651
193680
145894
51779.1
190778
59614.3
183060
206017
67614.6
134033
209154
190354
130575
171805
122328
71144.8
122134
14712.1
166219
52870.6
165602
171395
136347
75962.3
99379.8
82458
207053
221421
77292.3
82468.7
101758
205673
168753
75092.3
126759
204990
183880
203541
184079
45666.8
143141
166887
9726.01
141086
86002.9
92891.3
216745
195997
107351
86307.5
139934
163314
95066.8
136619
189674
221019
100404
108734
62589.3
145399
193703
115123
68650.7
34091.8
107528
172195
109208
201217
217531
202549
98445.1
163350
139189
85841.1
155696
195279
162105
127532
74080.1
165405
209625
193651
110609
150193
140345