/*--------------------------------*- C++ -*----------------------------------*\
  =========                 |
  \\      /  F ield         | OpenFOAM: The Open Source CFD Toolbox
   \\    /   O peration     | Website:  https://openfoam.org
    \\  /    A nd           | Version:  7
     \\/     M anipulation  |
\*---------------------------------------------------------------------------*/
FoamFile
{
    version     2.0;
    format      ascii;
    class       surfaceScalarField;
    location    "3";
    object      phi;
}
// * * * * * * * * * * * * * * * * * * * * * * * * * * * * * * * * * * * * * //

dimensions      [0 3 -1 0 0 0 0];

internalField   nonuniform List<scalar> 
97653
(
-7.49669e-06
7.15658e-06
3.40109e-07
1.47996e-05
-7.88502e-06
-6.91456e-06
1.4573e-05
-9.34606e-06
-5.2269e-06
1.52037e-05
-5.78703e-06
-9.4167e-06
-5.10902e-06
7.51624e-06
-2.40722e-06
-1.60638e-07
-1.29853e-05
1.31459e-05
-1.19075e-05
-1.26078e-05
2.45154e-05
-7.38225e-06
2.42588e-05
-1.68765e-05
2.30451e-05
-1.169e-05
-1.13551e-05
1.34377e-05
-2.8168e-05
1.47303e-05
-5.29465e-06
8.65439e-06
-3.35974e-06
-1.03686e-05
2.27607e-05
-1.23921e-05
9.46209e-06
-1.35453e-05
4.08326e-06
7.23088e-06
-1.4342e-05
7.11114e-06
8.46201e-06
-1.30788e-05
4.61675e-06
6.01034e-06
4.65404e-06
-1.06644e-05
-2.08179e-06
5.38978e-06
-3.30799e-06
-3.87332e-06
4.39997e-06
-5.26652e-07
-2.1784e-05
1.31519e-05
8.63211e-06
-1.09401e-05
5.2702e-06
5.66987e-06
3.50892e-06
5.72997e-06
-9.2389e-06
-3.00663e-06
1.9953e-06
1.01133e-06
-1.45672e-06
2.80886e-07
1.17584e-06
-8.28526e-06
6.22373e-07
7.66288e-06
2.53925e-05
-2.20283e-05
-3.36428e-06
1.75439e-05
7.84858e-06
-1.45438e-05
2.53072e-05
-1.07633e-05
3.78875e-07
1.34229e-05
-1.38018e-05
-2.35729e-06
5.91841e-06
-3.56112e-06
-5.64462e-06
6.22635e-06
-5.81734e-07
-4.51354e-05
8.88031e-06
3.62551e-05
-7.09869e-05
1.47061e-05
5.62808e-05
2.89523e-06
-1.21879e-05
9.29265e-06
-2.47359e-06
-5.35422e-06
7.82781e-06
1.28533e-06
-4.09286e-06
2.80753e-06
-2.61969e-05
9.47697e-06
1.67199e-05
5.87476e-06
-1.01065e-05
4.23177e-06
-2.08849e-06
-2.51779e-06
4.60628e-06
1.72557e-05
-5.38008e-06
-1.18756e-05
-3.83502e-06
5.70351e-06
-1.86849e-06
1.25474e-05
2.13653e-06
-1.46839e-05
-1.94251e-06
1.21681e-05
-1.02255e-05
-8.64927e-06
1.98758e-05
-1.12266e-05
-1.18885e-05
2.38776e-05
-1.19891e-05
-2.21474e-05
1.77413e-05
4.40605e-06
-1.28699e-05
1.22686e-05
6.01347e-07
-6.05409e-06
5.94592e-06
1.0817e-07
-4.51829e-06
2.13938e-07
4.30436e-06
-2.24321e-05
1.92253e-05
3.20679e-06
8.56446e-06
9.57726e-06
-1.81417e-05
6.28963e-06
5.96232e-06
-1.22519e-05
1.98486e-05
-5.03376e-06
-1.48148e-05
-1.26225e-05
-9.25245e-06
2.18749e-05
6.45461e-06
-1.67909e-05
1.03363e-05
-2.39615e-05
9.1568e-06
1.48047e-05
3.88262e-05
-8.11813e-06
-3.07081e-05
6.30868e-05
-1.31432e-05
-4.99436e-05
-2.06127e-05
8.40203e-06
1.22107e-05
-4.29581e-05
5.04337e-05
-7.47557e-06
1.47653e-06
-8.54491e-07
-6.22043e-07
1.39559e-05
-1.77498e-05
3.79387e-06
-2.91453e-06
-1.96349e-06
4.87803e-06
-3.35847e-05
2.71246e-05
6.46011e-06
4.99963e-07
1.6812e-05
-1.7312e-05
7.26415e-06
3.01374e-06
-1.02779e-05
1.8978e-05
-3.29391e-05
1.39611e-05
-1.18899e-05
3.17386e-05
-1.31871e-06
-8.29831e-07
2.14854e-06
-1.30099e-06
2.3307e-05
-2.2006e-05
1.31137e-05
-1.53091e-05
2.19536e-06
9.83749e-06
-3.54788e-06
-4.84388e-05
1.59933e-05
3.24454e-05
-2.38602e-06
-1.80991e-05
2.04851e-05
-3.04363e-05
6.86344e-06
2.35729e-05
-2.27581e-05
5.236e-06
1.75221e-05
-3.9105e-05
1.26458e-05
2.64592e-05
7.6975e-06
-4.18855e-06
7.66347e-06
5.46312e-06
-1.31266e-05
-3.97563e-06
-2.60297e-06
6.5786e-06
-1.43906e-05
1.98352e-05
-5.44463e-06
1.18347e-05
-1.81179e-05
6.28316e-06
3.10286e-06
-5.31653e-06
2.21366e-06
2.29264e-06
-6.97889e-06
4.68625e-06
3.62111e-05
-5.35121e-06
-3.08599e-05
7.83912e-06
-4.30098e-07
-7.40902e-06
1.03373e-05
-4.04438e-06
-6.2929e-06
-3.8424e-06
9.75688e-06
-5.91448e-06
3.25521e-06
2.91533e-05
-3.84401e-05
9.2868e-06
-8.02405e-06
7.82363e-06
2.00421e-07
-3.88318e-06
7.04052e-06
-3.15734e-06
-5.15358e-06
-1.63974e-05
2.1551e-05
-6.23736e-06
-2.48949e-05
3.11323e-05
-1.51383e-05
1.84657e-05
-3.32739e-06
2.85911e-06
9.51314e-06
-1.23722e-05
-9.76664e-06
3.60304e-06
6.1636e-06
-5.18004e-07
2.93879e-05
-2.88699e-05
1.2835e-05
-1.82516e-05
5.41666e-06
4.3687e-06
-2.36758e-05
1.93071e-05
-2.21746e-05
4.86824e-06
1.73064e-05
-1.0657e-05
-5.96844e-06
1.66255e-05
-2.43062e-05
-1.08826e-05
3.51889e-05
1.43738e-05
-1.42472e-05
-1.266e-07
-1.1088e-05
9.53493e-06
1.55307e-06
-5.14862e-06
-1.18271e-05
1.69757e-05
-1.71569e-05
-7.22348e-06
2.43804e-05
-7.56167e-06
1.48462e-05
-7.28449e-06
3.60218e-05
-2.3006e-05
-1.30158e-05
2.24183e-05
-3.17341e-06
-1.92449e-05
-8.07147e-06
1.55647e-05
-7.49325e-06
-1.48742e-05
-8.55973e-06
2.34339e-05
-2.68509e-06
3.53641e-06
-8.5132e-07
-2.60673e-06
7.26832e-07
1.8799e-06
-7.49172e-07
3.62124e-07
3.87049e-07
1.02786e-07
-4.96626e-06
4.86347e-06
1.24638e-05
7.1532e-06
-1.9617e-05
-1.98716e-05
9.4018e-06
1.04698e-05
1.22124e-05
-9.0884e-06
-3.12397e-06
-3.32078e-05
2.35793e-05
9.62846e-06
-1.42638e-05
1.45712e-05
-3.0747e-07
5.45818e-06
-3.98165e-06
1.82503e-05
-4.29439e-06
-2.94185e-05
4.21664e-05
-1.27479e-05
-1.29658e-05
1.48759e-05
-1.91003e-06
1.90909e-08
-1.29071e-06
1.27162e-06
-1.99103e-07
9.75625e-06
-9.55714e-06
-7.03569e-07
5.12148e-06
-4.41791e-06
-1.00113e-05
6.72604e-07
9.33868e-06
7.0323e-06
3.51551e-06
-1.05478e-05
3.06825e-06
6.1717e-07
-3.68542e-06
-1.73803e-05
-4.6168e-06
2.19971e-05
1.21058e-05
-1.89896e-05
6.88382e-06
4.55369e-06
1.93774e-07
-4.74746e-06
5.19939e-06
1.75091e-06
-6.9503e-06
1.03594e-06
-1.29506e-06
2.5912e-07
1.39435e-05
-5.98674e-06
-7.9568e-06
-9.41513e-06
1.10248e-05
-1.60967e-06
-5.19271e-06
5.08978e-06
1.02927e-07
-1.07135e-06
5.15695e-06
-4.0856e-06
-6.26608e-08
-8.37345e-06
8.43611e-06
9.75407e-06
1.59597e-05
-2.57137e-05
2.02671e-05
1.04752e-05
-3.07423e-05
-7.88452e-06
-1.52167e-05
2.31012e-05
-1.5856e-05
-3.78202e-06
1.9638e-05
-7.6487e-07
4.09038e-06
-3.32551e-06
1.90323e-05
-2.02963e-05
1.26399e-06
1.19899e-05
-1.63966e-05
4.40667e-06
2.58063e-05
-5.42901e-06
-2.03773e-05
1.80651e-05
-8.09424e-07
7.65426e-06
2.44402e-05
-3.20944e-05
-4.14007e-05
-2.57669e-07
4.16583e-05
1.12772e-05
-1.03199e-05
-9.57297e-07
3.52805e-06
5.39447e-07
-4.0675e-06
-2.72585e-06
4.44152e-06
-1.71567e-06
9.92855e-06
-2.18161e-06
-7.74694e-06
6.21894e-06
-1.93107e-06
-4.28787e-06
6.12111e-06
7.63738e-06
-1.37585e-05
-2.08826e-05
2.68827e-05
-6.00003e-06
8.50486e-06
-1.9662e-07
-8.30824e-06
8.54978e-06
-7.10265e-06
-1.44713e-06
1.38804e-05
-1.30712e-05
-8.09232e-07
2.40025e-06
5.12098e-06
-7.52123e-06
3.77244e-06
1.03537e-05
-1.41261e-05
4.42499e-06
-8.96946e-07
1.80319e-06
-4.52899e-06
-2.32341e-05
4.75905e-07
-3.31574e-05
2.72113e-06
1.18506e-05
-2.87773e-05
1.69266e-05
-1.17609e-05
-9.28263e-06
2.10435e-05
-1.17295e-05
-5.53607e-06
1.72656e-05
2.16256e-05
-1.76772e-05
-3.94843e-06
1.40968e-05
-8.58368e-06
-5.51316e-06
1.20386e-05
-9.84479e-06
-2.19377e-06
1.23701e-05
-1.06606e-05
-1.70955e-06
2.78383e-05
6.47902e-06
-3.43173e-05
4.28232e-06
1.59244e-06
4.03998e-07
5.49608e-06
-5.90008e-06
4.03705e-06
-9.46231e-06
5.42526e-06
-2.72082e-06
1.09046e-05
-8.18381e-06
2.05835e-05
-1.18555e-05
-8.72799e-06
4.23817e-06
5.13019e-07
-4.75118e-06
8.01568e-06
-1.13188e-05
3.30314e-06
-3.71863e-06
-2.72989e-06
6.44852e-06
5.34868e-06
3.09357e-06
-8.44225e-06
6.74867e-06
6.49285e-06
-1.32415e-05
4.67896e-06
4.88694e-06
-9.5659e-06
-3.0829e-08
6.42487e-06
-6.39404e-06
-7.59105e-07
2.17589e-07
5.41516e-07
3.36711e-06
-5.42807e-07
-2.8243e-06
-2.22548e-05
-7.16377e-06
-1.37608e-05
7.94961e-07
-1.77875e-05
3.6089e-06
1.41786e-05
-2.46109e-05
1.94816e-05
5.12933e-06
-9.95322e-06
7.80148e-06
2.15174e-06
6.76137e-06
-3.10407e-06
-3.65729e-06
4.89573e-06
-1.79287e-06
8.53828e-06
-6.24563e-06
1.34982e-05
-1.43697e-05
8.71427e-07
-2.0872e-05
9.14243e-06
5.57128e-06
-1.5038e-05
9.46674e-06
-7.66649e-06
8.07041e-06
9.46797e-07
-7.48928e-06
6.54248e-06
-1.2775e-05
3.35992e-06
-2.20292e-05
1.22947e-05
9.73454e-06
7.10555e-07
1.49414e-06
-2.20469e-06
-8.207e-06
-1.3946e-05
2.2153e-05
6.85608e-06
-1.07388e-07
3.10003e-06
1.57894e-06
1.04835e-05
-1.60197e-05
-8.94936e-07
1.29921e-05
-1.20972e-05
-2.2503e-05
1.8652e-05
3.85103e-06
3.54298e-06
-4.32883e-08
-3.4997e-06
3.99178e-06
1.52283e-06
-5.51461e-06
2.32723e-05
3.32876e-06
-2.6601e-05
5.72828e-06
1.34163e-05
-1.91445e-05
5.7669e-06
6.59165e-06
-1.23585e-05
2.30096e-05
-1.53554e-05
1.42745e-07
-1.72925e-05
1.71497e-05
7.07773e-07
-1.31274e-06
6.04966e-07
1.75783e-05
-1.76409e-05
-5.73433e-06
-1.16582e-05
1.73925e-05
-1.50208e-05
4.63946e-06
1.03814e-05
-1.37243e-05
6.22394e-06
7.50037e-06
6.96992e-06
-1.21235e-05
9.67909e-06
-1.59165e-05
3.19044e-05
-1.9758e-05
-1.21464e-05
2.49664e-06
-1.12021e-05
8.70546e-06
6.78939e-06
-1.28187e-05
6.02936e-06
1.52602e-06
1.03246e-05
1.52117e-05
-2.25939e-05
-2.45523e-05
-1.89538e-05
4.35061e-05
-1.52107e-05
-1.51588e-05
3.03695e-05
-1.22431e-05
-9.19149e-06
2.14346e-05
7.9334e-06
-7.23917e-06
-6.94231e-07
2.47991e-06
8.13788e-06
-1.06178e-05
5.38808e-06
-1.08034e-05
5.41536e-06
3.03817e-05
-2.42606e-05
1.8893e-05
-1.91777e-06
-1.69752e-05
-5.40206e-06
9.56582e-06
-4.16377e-06
-8.41444e-06
9.64975e-06
-1.23531e-06
-1.57161e-05
2.7953e-06
1.29207e-05
7.68693e-06
7.76068e-06
-1.54476e-05
1.24408e-05
-7.79555e-06
-4.64524e-06
-7.46697e-06
4.46028e-06
-2.4123e-05
6.50186e-06
1.76212e-05
-1.56677e-05
-1.16908e-05
2.73585e-05
2.15484e-05
-1.49706e-05
-6.57787e-06
1.92142e-05
-5.90214e-06
-1.33121e-05
2.68824e-05
9.14386e-06
-3.60263e-05
2.37556e-06
1.4235e-05
-1.66105e-05
-1.8834e-05
-1.57844e-06
2.04124e-05
-6.25656e-06
-3.19547e-06
9.45202e-06
1.63133e-05
-9.37366e-07
-1.53759e-05
-1.83927e-05
3.74006e-06
1.46527e-05
2.79397e-06
-8.41558e-07
-1.95241e-06
2.4499e-06
1.34014e-06
-3.79004e-06
5.24153e-06
-6.13647e-06
3.78402e-05
-2.11749e-05
-1.66653e-05
1.10556e-05
-7.62317e-05
6.51761e-05
-5.2378e-06
-6.53107e-06
1.17689e-05
-1.03889e-05
1.96869e-05
-9.29806e-06
-2.4264e-06
3.05838e-06
-6.31977e-07
1.09639e-05
9.87326e-06
-2.08371e-05
-2.408e-05
6.54478e-06
1.75352e-05
-2.90588e-05
7.55379e-06
2.1505e-05
9.12933e-06
-8.70718e-06
-4.22153e-07
1.25882e-05
-9.72993e-07
-1.16152e-05
-2.56032e-05
1.43562e-05
1.1247e-05
-1.96332e-05
9.2591e-06
1.03741e-05
-3.13788e-05
2.21013e-05
9.27747e-06
9.04739e-06
-6.2854e-06
-2.76199e-06
4.6195e-06
-1.72696e-07
-4.4468e-06
1.32398e-05
-3.53598e-05
2.212e-05
2.77242e-05
-1.53541e-05
-1.23701e-05
6.4413e-06
-3.735e-06
-2.7063e-06
-1.40573e-05
8.52443e-06
5.53289e-06
-1.1868e-05
1.18745e-05
-6.5187e-09
1.81107e-06
5.54219e-07
-2.36529e-06
-4.64747e-06
8.93347e-07
3.75412e-06
1.30323e-05
-9.79804e-06
-3.23426e-06
7.97077e-06
-7.55515e-06
-4.15622e-07
2.86323e-05
-1.45065e-05
-1.41258e-05
-1.44881e-06
-1.04396e-05
-2.98341e-05
2.21706e-05
7.66346e-06
-2.5256e-05
1.62013e-05
9.05477e-06
-6.9027e-06
4.96016e-06
-8.74045e-06
9.1206e-08
-6.68979e-06
-1.72465e-06
-1.44725e-06
1.4164e-06
1.32539e-05
-1.03137e-05
-2.94017e-06
-2.85708e-06
1.77177e-05
-1.48607e-05
1.02644e-06
1.86562e-05
-1.96827e-05
7.99148e-06
-1.99139e-05
1.19224e-05
7.17909e-06
-2.5175e-05
1.7996e-05
-1.73203e-05
8.67931e-06
8.64095e-06
3.81997e-06
-6.63285e-06
2.81288e-06
-1.24379e-06
1.3972e-05
-1.27282e-05
-8.37762e-07
1.44655e-05
-1.36278e-05
-1.14453e-05
5.50702e-06
5.93827e-06
-1.85591e-05
-1.1275e-05
-1.22687e-05
-1.29873e-05
1.67333e-05
-1.37484e-05
-2.98489e-06
-2.39857e-06
-7.31175e-06
9.71031e-06
-2.0402e-05
-3.27415e-07
2.07294e-05
-8.84223e-07
-6.65571e-07
1.54979e-06
2.15423e-05
-7.13665e-06
-1.44057e-05
4.68321e-06
3.54028e-06
-8.2235e-06
5.95684e-05
-6.60254e-05
6.457e-06
-3.49288e-06
1.38369e-05
-1.03441e-05
6.17242e-06
7.7712e-06
8.72502e-06
-6.78443e-06
-1.94059e-06
8.6852e-06
-4.97253e-06
-3.71267e-06
-1.09004e-05
-1.12963e-05
2.21967e-05
-1.0899e-05
-1.12484e-05
-4.84917e-06
-8.02077e-06
3.60185e-06
6.16966e-06
-9.77151e-06
-1.47688e-05
2.93021e-06
1.18386e-05
1.58314e-05
-8.79905e-06
8.91107e-06
-5.84282e-06
6.11761e-07
-8.46283e-06
7.85107e-06
1.37989e-05
-1.39027e-06
-1.24086e-05
-1.80146e-05
-6.37915e-06
2.43937e-05
3.53354e-06
1.50616e-06
-5.0397e-06
7.12515e-06
1.57619e-07
-7.28276e-06
-1.3176e-05
2.08082e-05
-7.63222e-06
-1.92341e-05
2.79379e-05
-8.70375e-06
-1.32468e-05
4.60781e-06
8.639e-06
-4.14547e-06
3.29572e-05
-2.88117e-05
-3.8855e-07
-2.0934e-06
2.48195e-06
-1.34812e-05
2.38146e-07
1.3243e-05
-2.32151e-05
-1.74619e-05
4.0677e-05
-4.15374e-06
-1.00992e-05
1.42529e-05
-2.13928e-06
-5.53664e-06
7.67591e-06
7.29079e-07
3.17786e-06
-3.90694e-06
1.02023e-05
4.30756e-05
-5.32779e-05
-2.6702e-05
1.1344e-05
1.53581e-05
-1.7829e-05
1.81572e-05
-3.28209e-07
-1.31642e-05
-7.79176e-07
1.39434e-05
-2.49001e-05
3.69167e-05
-1.20167e-05
-1.39272e-05
2.24059e-05
-8.47872e-06
3.85206e-06
-3.20736e-08
6.7017e-06
-9.02635e-06
2.32465e-06
-1.32091e-05
7.94276e-06
5.2663e-06
-2.32121e-05
1.80421e-05
5.17001e-06
1.57185e-06
-1.9604e-06
-1.55311e-05
-3.78717e-06
1.93183e-05
-1.03993e-05
-2.28085e-05
-0.000101419
0.000101791
-3.71648e-07
-2.248e-05
1.21113e-05
2.37206e-06
6.50325e-06
-8.8753e-06
3.37579e-06
-1.8299e-05
1.49232e-05
-4.30649e-06
-4.74218e-06
9.04867e-06
1.03248e-05
-8.16081e-06
-2.16395e-06
1.57698e-05
-1.08154e-05
-4.95437e-06
-1.58142e-05
5.18167e-06
1.06326e-05
6.08623e-06
7.31503e-06
-1.34013e-05
-4.43961e-06
-9.27792e-06
1.37175e-05
-6.47043e-07
-1.12054e-07
4.89898e-06
-1.53189e-06
7.59935e-05
-3.60693e-05
-3.99242e-05
4.8912e-05
-2.23654e-05
-2.65465e-05
3.21823e-05
-4.67261e-05
-2.95729e-05
5.14079e-07
3.13917e-05
-6.13546e-06
-2.52562e-05
1.09724e-05
-4.94092e-06
-6.03153e-06
-1.32685e-06
-1.26229e-05
1.39498e-05
1.15621e-05
-7.84629e-06
-3.71584e-06
-5.86671e-06
1.41585e-05
-8.29178e-06
8.13331e-06
-1.78839e-07
-7.95447e-06
4.34254e-06
-3.02409e-08
-4.31229e-06
-8.05135e-06
-3.96289e-06
1.20142e-05
2.31289e-05
-2.86179e-06
-2.09489e-06
1.74845e-05
-1.53896e-05
-4.07715e-05
2.14582e-05
1.93133e-05
-5.4309e-06
-9.73077e-06
1.51617e-05
-1.03294e-05
2.68846e-05
-1.65552e-05
-6.07092e-06
8.60363e-07
5.21056e-06
-1.04026e-05
-3.34221e-06
1.37448e-05
-1.4626e-06
1.48166e-06
8.91602e-06
-2.7893e-05
1.8977e-05
-1.50206e-05
1.19889e-05
3.03175e-06
-1.73923e-06
-2.13407e-06
-2.97202e-06
8.90196e-07
-1.02765e-05
-8.83412e-07
1.116e-05
-1.72794e-05
-5.74363e-06
2.3023e-05
-1.66432e-05
3.85339e-05
-2.18906e-05
-8.37078e-06
-1.10289e-05
1.93997e-05
-1.26739e-05
-7.42137e-06
2.00953e-05
5.56401e-06
-8.35969e-06
2.79569e-06
-1.53388e-07
-1.39255e-05
1.40788e-05
9.66269e-06
5.54105e-06
-7.42738e-06
4.46962e-06
2.95776e-06
-4.22661e-06
-3.7406e-06
7.9672e-06
-1.51427e-05
-2.4353e-06
1.7578e-05
-5.20829e-06
5.00917e-06
-1.52111e-06
8.17513e-07
-7.05091e-06
1.42979e-05
-7.24698e-06
-3.44272e-05
4.63764e-05
-1.19492e-05
-9.53471e-06
1.14329e-05
-1.89823e-06
-2.88397e-06
7.657e-06
-4.77304e-06
-7.41285e-06
-3.16513e-06
1.0578e-05
2.67613e-06
-8.53184e-06
5.85571e-06
1.49244e-05
-6.17487e-06
-8.74955e-06
-1.81923e-05
1.37034e-05
4.48896e-06
-7.04767e-06
6.13379e-08
6.98633e-06
-4.86001e-06
2.08398e-06
2.77603e-06
-1.21934e-05
5.47125e-06
6.72215e-06
-8.00314e-06
2.85451e-06
-1.51068e-07
-6.87162e-06
7.02269e-06
1.07406e-05
-1.51998e-05
4.45921e-06
-1.17334e-05
1.79992e-05
-6.26581e-06
5.97805e-06
1.28612e-06
5.57435e-05
2.025e-05
3.4121e-05
1.4791e-05
6.27826e-06
5.03978e-06
-1.1318e-05
5.71945e-06
9.56608e-07
-6.67605e-06
1.06945e-06
1.79629e-05
-3.95977e-06
1.59497e-05
-2.65485e-05
2.8923e-05
-2.37453e-06
-6.06899e-06
-4.96015e-06
1.10291e-05
-2.04039e-05
1.45762e-05
5.82772e-06
0.000110076
-8.49782e-05
-2.50973e-05
-2.50863e-05
-6.63912e-06
3.17254e-05
1.70877e-06
-8.22074e-06
6.51197e-06
-5.87999e-06
1.26691e-05
-6.78916e-06
9.57314e-06
3.5788e-05
-4.53612e-05
-1.2504e-05
1.52543e-05
-2.7503e-06
1.17476e-05
-1.39373e-05
2.18973e-06
-1.67825e-06
-5.10652e-06
6.78477e-06
-2.1934e-05
0.000135414
-0.00011348
2.56582e-05
-1.22766e-05
-1.33816e-05
1.58128e-05
-2.77203e-05
1.69141e-05
-1.22522e-06
-1.56889e-05
3.44887e-06
8.04398e-06
-1.14929e-05
3.32663e-06
-1.00677e-05
6.74108e-06
-4.11151e-06
-4.95782e-06
9.06933e-06
-3.4845e-06
4.84406e-06
-1.35955e-06
2.40039e-05
5.14936e-06
-1.54131e-05
9.65091e-06
5.76216e-06
-1.14575e-05
9.1906e-06
2.26691e-06
-3.59923e-05
2.07439e-05
1.52484e-05
9.36512e-06
3.85334e-06
-1.32185e-05
1.10118e-05
-5.2944e-06
-5.71737e-06
1.86634e-05
-5.30905e-05
9.45023e-06
-3.87894e-06
-2.30441e-05
7.40219e-06
1.56419e-05
4.45049e-06
-1.20544e-05
7.6039e-06
-5.75715e-06
9.48581e-06
-3.72866e-06
-5.17979e-06
2.86836e-06
2.31142e-06
-2.32446e-05
2.62906e-06
2.06156e-05
3.31364e-07
2.88548e-06
-3.21684e-06
-7.7732e-06
9.23403e-06
-1.46083e-06
-1.02718e-05
2.11106e-05
-1.08388e-05
2.81891e-05
-6.56349e-06
1.91744e-05
-5.07757e-06
-9.22918e-06
8.16997e-06
1.05922e-06
8.41472e-06
4.00718e-06
-1.24219e-05
4.20432e-06
2.41704e-06
-6.62136e-06
1.66094e-06
2.10998e-05
-1.05736e-05
2.86947e-06
7.70412e-06
-2.45367e-05
3.6541e-06
-1.98498e-05
6.89487e-06
1.29549e-05
6.90256e-06
-1.11213e-05
4.21877e-06
-9.51332e-06
3.72741e-07
9.14058e-06
1.58936e-05
7.37867e-06
-1.44724e-05
1.01214e-05
4.35108e-06
-7.00034e-06
6.69015e-06
3.10184e-07
-1.0078e-05
8.58333e-06
1.49468e-06
4.10759e-06
-6.67256e-07
-3.44033e-06
-1.89556e-05
1.28865e-05
-2.39768e-05
3.57294e-06
-5.39162e-06
2.78488e-06
-6.96678e-06
6.21759e-06
1.11235e-05
3.87674e-06
-1.50002e-05
3.1985e-06
-3.51483e-05
3.19498e-05
-5.32083e-06
1.37828e-06
3.94255e-06
-1.45562e-06
9.76727e-07
4.78895e-07
-5.74297e-06
2.32934e-06
3.41364e-06
-6.96827e-06
-1.94347e-06
8.91174e-06
1.04949e-05
-7.99821e-06
1.26694e-05
-5.87996e-06
-1.99854e-05
-1.13934e-05
-8.39862e-06
-1.12346e-05
-2.67769e-06
-5.39381e-06
4.49097e-06
1.34955e-05
-1.79865e-05
-5.11909e-06
1.38365e-06
3.73544e-06
2.18468e-06
-6.42021e-07
-1.54266e-06
5.69645e-06
-5.38526e-06
-3.11185e-07
1.15247e-06
-6.00637e-06
4.8539e-06
2.93154e-05
-1.84444e-05
-1.0871e-05
6.68056e-06
-7.34213e-06
6.61565e-07
-3.21711e-05
3.58726e-06
2.85838e-05
-2.52337e-05
6.814e-06
1.84197e-05
-2.2633e-05
8.11429e-06
1.45187e-05
9.28327e-06
-1.58579e-06
-5.80884e-06
-1.6505e-05
2.23139e-05
-1.35957e-05
-6.27588e-06
-1.7352e-05
-1.95843e-05
3.69363e-05
3.43435e-06
6.20759e-06
-9.64194e-06
-2.16244e-06
-4.43448e-06
6.59693e-06
-1.78282e-06
1.01793e-06
-5.57264e-06
-8.91749e-07
6.46438e-06
2.57326e-05
-3.88632e-05
1.31306e-05
7.09669e-06
-1.14154e-05
4.31869e-06
9.74003e-06
-1.67135e-05
6.97351e-06
3.11606e-05
-5.35433e-06
7.52214e-06
-1.95814e-06
9.09006e-06
-9.24347e-06
3.23683e-05
-1.92615e-05
-1.31068e-05
-0.00017038
0.00017038
-3.80696e-06
1.03917e-05
-6.58472e-06
4.61586e-06
-2.00646e-05
1.54487e-05
9.87571e-06
1.24029e-05
-2.22786e-05
3.68608e-05
-2.74097e-05
-9.45112e-06
-1.47935e-05
3.64018e-06
1.11533e-05
-1.23835e-05
4.10313e-06
8.28041e-06
-0.000110248
0.000203773
-9.35255e-05
-2.23266e-05
8.26923e-06
-1.40039e-05
2.13585e-06
-1.7482e-05
-6.59796e-06
-5.59928e-05
2.55118e-05
3.0481e-05
9.32903e-08
-2.66389e-06
2.5706e-06
-3.62124e-05
3.62124e-05
-4.08113e-05
4.08113e-05
-3.42833e-05
5.33335e-05
-1.90502e-05
-1.49697e-05
2.14243e-05
-3.40408e-07
3.40272e-06
-3.06231e-06
1.05499e-05
-5.42396e-06
-5.12598e-06
5.83288e-06
5.44428e-06
2.87945e-07
3.70007e-06
-3.98801e-06
1.62998e-06
5.05052e-06
-6.69383e-06
7.44805e-06
-7.54223e-07
-5.27457e-06
-3.89562e-06
9.1702e-06
-1.74295e-07
-3.88616e-06
4.06045e-06
-1.24685e-05
-5.76447e-06
1.8233e-05
-1.01908e-05
-9.16188e-06
1.93527e-05
-1.702e-05
1.71626e-05
8.65833e-06
-7.53212e-06
-1.12621e-06
4.78401e-05
1.17283e-05
-7.21704e-06
-5.88354e-06
1.31006e-05
3.39984e-05
-2.4805e-05
-9.19343e-06
-8.74356e-06
1.39565e-05
-5.21291e-06
-3.22822e-05
3.99691e-05
-1.41497e-05
9.25962e-06
4.89004e-06
-1.90529e-05
-8.32801e-06
2.73809e-05
-1.47982e-05
1.0739e-06
-1.27561e-05
-1.2144e-05
-6.03335e-06
-7.89381e-06
9.46232e-06
1.54949e-06
-8.61853e-06
6.68821e-06
1.93032e-06
-2.01875e-05
8.52896e-06
1.16585e-05
-2.89435e-06
-1.49495e-06
4.3893e-06
4.37987e-06
-7.0478e-06
2.66793e-06
1.63349e-05
-4.05735e-05
2.42386e-05
7.22154e-06
-1.32262e-05
6.00462e-06
3.01192e-06
-1.34109e-05
1.03989e-05
-2.88045e-06
1.26205e-05
1.50738e-05
-4.1099e-06
8.45859e-06
6.38647e-06
-1.48451e-05
-7.58689e-06
3.74689e-06
3.84e-06
-8.12853e-06
-6.89209e-06
6.73087e-06
-3.29649e-06
2.16253e-05
-1.87662e-05
-5.92805e-06
1.02968e-05
5.4814e-06
-3.36542e-06
-2.11598e-06
-1.57092e-05
4.20367e-06
1.15056e-05
-2.8519e-06
1.44103e-05
-1.15584e-05
7.07408e-06
5.10698e-08
2.5394e-06
9.94116e-07
-4.23205e-07
-8.89035e-06
9.31356e-06
-1.1257e-05
1.09415e-05
3.15532e-07
-1.85892e-05
-1.81282e-06
-3.94994e-05
1.8855e-05
2.06444e-05
-3.19038e-06
4.98238e-06
-1.792e-06
-3.2492e-06
2.5416e-06
7.07598e-07
-2.78827e-06
-8.45794e-07
3.63406e-06
6.97893e-06
-1.37649e-05
6.78595e-06
1.4154e-06
1.48979e-05
-5.73317e-06
-1.26596e-05
1.34761e-05
-3.7295e-07
-1.31031e-05
-9.48134e-06
1.79399e-05
4.79846e-06
-1.54555e-05
9.02322e-06
-3.33295e-05
-8.79828e-06
1.24975e-05
-3.69925e-06
-2.52615e-05
2.21327e-05
3.12877e-06
-8.15566e-06
-1.50565e-05
-9.26059e-06
-3.09092e-05
4.01698e-05
-1.54512e-05
-4.81533e-05
6.36045e-05
8.25861e-07
1.11152e-05
-1.1941e-05
1.21224e-05
-5.06353e-06
-7.05882e-06
2.55411e-06
-7.32343e-06
4.76932e-06
2.30005e-05
-2.38151e-05
8.14582e-07
3.23378e-06
1.0695e-06
-4.30328e-06
-6.52062e-06
1.0915e-05
-4.39441e-06
-1.02926e-05
1.69856e-05
-6.69299e-06
1.3997e-06
-1.61452e-05
1.47455e-05
-1.44691e-05
4.13972e-06
4.08477e-05
5.42367e-07
-4.13901e-05
1.15856e-05
-5.54823e-06
-6.0374e-06
2.33167e-05
-2.05777e-05
-2.73897e-06
4.05546e-06
7.06801e-06
1.3082e-05
-1.27637e-05
-3.18299e-07
-2.7258e-05
1.02804e-06
2.623e-05
-5.94867e-07
7.96828e-07
-2.01962e-07
-5.68078e-06
5.92477e-06
-2.43995e-07
-3.67977e-06
3.69655e-06
-1.67817e-08
-5.71165e-06
1.19337e-06
-1.31353e-05
2.23036e-05
-9.16836e-06
-3.02628e-06
9.74893e-06
-6.72265e-06
-5.04519e-07
-5.89146e-06
6.39598e-06
7.75622e-06
-5.53218e-06
-2.22404e-06
9.96382e-07
-3.86691e-06
2.87053e-06
-8.69482e-06
2.34179e-05
-1.47231e-05
2.05671e-05
1.62447e-05
-3.68117e-05
8.04309e-06
-1.40802e-05
6.03714e-06
1.82222e-05
-1.90144e-05
7.92209e-07
-4.36487e-06
4.27851e-06
8.63531e-08
1.55434e-05
-8.66939e-06
-6.87402e-06
4.21458e-06
2.02844e-06
-6.24301e-06
4.54407e-06
-7.45857e-06
3.54038e-05
-2.37407e-05
-1.1663e-05
2.02187e-05
-1.41009e-05
-6.1178e-06
-1.70759e-07
8.81356e-07
-1.9291e-05
-2.56111e-06
2.18521e-05
3.22988e-05
3.89845e-06
-3.61973e-05
3.4221e-05
7.07754e-06
-4.12986e-05
1.50696e-05
-2.23461e-06
0.000148985
-0.000131065
-1.79201e-05
-6.79507e-06
1.01217e-05
-1.3409e-05
9.29753e-06
-9.67343e-06
8.83565e-06
-6.79345e-06
-4.09452e-06
1.0888e-05
-4.79514e-07
-3.04416e-05
3.09211e-05
-2.2451e-05
2.11241e-05
1.20232e-05
-1.82405e-05
6.21724e-06
-2.29697e-07
-1.12131e-05
1.14428e-05
-5.55795e-06
9.02876e-06
-3.47081e-06
-4.96896e-06
7.08027e-06
-2.11131e-06
-8.9511e-06
1.29982e-05
-4.04708e-06
5.6397e-06
-3.15471e-05
2.59074e-05
-8.21112e-06
1.71222e-05
-6.3155e-06
2.21468e-05
-8.24994e-06
1.47004e-05
-6.45049e-06
-2.82638e-08
6.3538e-06
-6.32554e-06
-1.85469e-05
4.31432e-07
1.81155e-05
-1.06201e-05
-3.60461e-06
1.42247e-05
6.43545e-06
-1.21331e-05
5.69763e-06
-2.39083e-05
9.0218e-06
1.48865e-05
-5.54603e-07
6.39933e-06
-5.84473e-06
9.26199e-06
-2.9259e-06
-6.33609e-06
3.99967e-06
-2.4693e-06
-1.53037e-06
1.33879e-05
1.22703e-05
-8.85345e-06
4.83797e-06
4.01548e-06
-4.82108e-08
-9.71841e-06
-9.84044e-06
1.09985e-05
-1.15807e-06
-4.90166e-05
0.000130071
-8.10544e-05
-6.16896e-07
1.13741e-05
-1.07572e-05
-3.62919e-06
2.77137e-06
8.57814e-07
7.80183e-07
4.91625e-06
-6.05959e-06
7.2121e-06
-1.78075e-05
1.95143e-06
-1.12205e-05
9.43163e-06
1.78882e-06
-6.04626e-06
-8.99172e-06
1.0869e-05
-4.21103e-05
3.12413e-05
1.49943e-05
-6.53778e-05
5.03835e-05
6.11558e-06
1.50202e-05
-2.11358e-05
8.27612e-06
9.90027e-06
-1.81764e-05
-8.39177e-06
5.86882e-05
-5.02965e-05
1.38523e-05
7.7293e-07
-2.65664e-06
1.88371e-06
-4.34751e-06
1.29621e-06
3.0513e-06
3.67364e-05
-1.13169e-05
-2.54194e-05
-7.08139e-06
7.45256e-06
-3.71165e-07
4.63262e-06
-2.55274e-05
4.64111e-06
-1.77554e-05
1.31142e-05
1.47473e-05
-1.21189e-05
-2.62839e-06
1.59751e-05
5.48035e-06
-2.14554e-05
6.78448e-06
4.06726e-07
-7.1912e-06
-7.71e-06
1.2119e-05
-4.40897e-06
7.26814e-05
-7.43836e-05
1.70217e-06
2.50298e-06
6.86217e-06
3.79773e-05
-0.000143913
0.000105936
1.96392e-05
2.12085e-05
1.9308e-05
-6.34499e-06
-1.2963e-05
-2.02151e-05
5.07676e-06
-8.33085e-06
-5.22598e-07
-1.93212e-05
1.6533e-05
-1.27438e-05
3.49172e-05
-2.21734e-05
-9.26203e-08
-2.52719e-07
3.4534e-07
6.47785e-06
-1.32713e-05
-7.14092e-09
4.1626e-06
-4.15546e-06
1.28282e-05
5.52427e-06
-1.83525e-05
4.35149e-07
2.01473e-06
-4.6359e-07
3.25755e-06
-8.0668e-06
-1.01848e-05
1.16197e-05
5.29441e-06
1.55142e-05
-1.06272e-05
2.29432e-05
-1.64503e-05
-9.81574e-07
-2.5029e-06
-2.73438e-06
3.46352e-06
-8.3181e-06
1.00775e-05
-1.75942e-06
-5.73333e-06
5.9907e-06
-2.57375e-07
-3.41966e-05
2.30709e-05
1.11257e-05
7.50614e-06
7.88144e-06
-1.53876e-05
2.52251e-06
-6.21055e-06
3.68804e-06
-7.88272e-06
-3.12222e-05
-2.25989e-06
-5.79149e-06
-2.56578e-06
-1.32484e-05
4.46707e-05
4.80557e-06
-4.94763e-05
8.90414e-06
2.7307e-05
8.46088e-07
6.99312e-06
4.50209e-06
-1.72997e-06
-2.77213e-06
-8.76053e-06
-1.02924e-05
-2.25462e-05
1.38027e-05
1.23901e-05
1.08596e-06
1.02086e-05
-2.80826e-06
-7.40038e-06
-1.27356e-05
1.91118e-05
-6.37613e-06
1.73762e-05
-1.20275e-05
-2.44629e-05
1.7673e-05
6.78987e-06
-1.50399e-05
1.19664e-05
3.07346e-06
-1.22412e-05
-6.13987e-07
1.28552e-05
-3.86016e-06
-5.33504e-06
9.1952e-06
1.69917e-06
2.02621e-06
-3.72538e-06
8.39147e-06
-6.28029e-06
-2.11117e-06
-4.93946e-05
2.16579e-05
2.77367e-05
5.53795e-05
-4.56764e-05
-9.70307e-06
3.6346e-05
-3.19362e-05
-4.40977e-06
4.33254e-06
-9.17371e-07
-3.41517e-06
-3.21203e-05
4.63735e-05
-1.42533e-05
-8.47624e-06
4.51335e-06
-1.45652e-05
1.98244e-05
-5.25925e-06
-1.78651e-05
2.60681e-05
-8.20292e-06
1.43444e-05
-1.275e-06
-1.30694e-05
-2.65288e-05
2.60493e-05
-4.46353e-05
7.46198e-07
4.38891e-05
-7.31332e-05
1.45141e-06
7.16818e-05
1.00845e-05
-1.09497e-05
8.6523e-07
-1.32112e-05
7.54442e-06
5.66676e-06
-1.52171e-05
1.16503e-05
3.56688e-06
-4.24153e-06
-3.15283e-06
7.39436e-06
-1.0364e-06
-3.95119e-06
4.9876e-06
8.3276e-06
-1.72169e-05
8.88933e-06
1.53758e-05
-2.27569e-05
7.38111e-06
-7.15555e-06
-9.25298e-06
1.64085e-05
1.44651e-05
-5.01491e-06
6.04509e-06
-3.2774e-06
-2.7677e-06
-4.38228e-06
-5.57735e-07
4.94001e-06
-5.00691e-05
-8.31907e-05
0.00013326
1.62179e-05
-7.2959e-06
-8.92196e-06
8.06375e-06
-8.80734e-06
7.43591e-07
2.59814e-05
-2.11545e-05
-4.82692e-06
2.97479e-06
-2.65665e-05
2.35917e-05
-3.96791e-06
-1.47089e-06
5.43881e-06
-1.51451e-05
1.00166e-05
5.12855e-06
-1.75583e-05
1.05369e-05
7.02139e-06
8.13558e-07
6.78544e-07
-1.4921e-06
2.36761e-06
-6.60912e-06
4.98122e-06
-6.01759e-06
-1.6626e-05
2.63801e-05
6.00657e-07
6.16073e-06
4.02985e-06
-2.60206e-06
-1.42779e-06
2.51119e-06
-2.98312e-07
-2.21288e-06
-1.3613e-05
-1.65196e-05
3.01327e-05
-0.000113448
5.73121e-05
5.61358e-05
-4.5059e-06
1.80983e-05
-1.35925e-05
-2.32538e-06
-1.32057e-05
-4.70636e-06
-9.935e-07
5.69986e-06
6.83269e-06
4.13524e-05
-4.81851e-05
3.56785e-06
2.96378e-05
-3.32056e-05
1.59803e-05
4.60326e-06
5.81398e-06
-1.57579e-06
3.68973e-06
-4.28459e-06
-3.94528e-06
-1.72573e-05
2.12026e-05
-2.01361e-05
1.0223e-05
9.91308e-06
-1.82329e-05
4.08321e-06
-9.6844e-06
-9.2487e-06
1.89331e-05
-1.85928e-05
-1.07271e-05
2.93199e-05
-1.20542e-05
5.43487e-06
6.61933e-06
-1.9108e-05
3.54429e-05
-9.96318e-06
2.72032e-05
-1.724e-05
-1.43783e-05
4.043e-05
-2.60517e-05
-2.23463e-06
1.77514e-05
-1.55167e-05
3.17612e-06
2.48205e-05
-2.79966e-05
5.40466e-06
-1.3887e-05
8.48237e-06
-2.08196e-05
-4.44192e-06
-1.88616e-06
-8.34657e-07
-7.66443e-06
6.90068e-06
7.63752e-07
-9.75262e-06
9.1026e-06
6.50011e-07
1.03238e-05
-2.88549e-05
1.85311e-05
5.46196e-07
7.68709e-06
-8.23328e-06
-4.0292e-06
5.71608e-06
-1.68688e-06
-5.28165e-05
2.66766e-06
5.01488e-05
-1.1001e-06
-5.85378e-06
6.95388e-06
-5.70352e-06
6.65039e-06
3.7587e-07
-1.11225e-05
1.07466e-05
2.46128e-07
-1.1383e-05
1.11369e-05
-1.16892e-05
7.8354e-06
3.85382e-06
1.9085e-05
1.02304e-05
-3.34487e-06
-5.19326e-06
8.53813e-06
-1.78801e-05
5.48072e-06
1.23994e-05
-1.74718e-05
5.78428e-06
1.16875e-05
-7.12108e-06
1.89735e-05
-1.18524e-05
3.90279e-07
-3.22886e-06
2.83858e-06
-7.56981e-06
7.09987e-06
4.69942e-07
2.79748e-06
-4.07177e-06
1.27429e-06
-3.43692e-06
5.42581e-07
-3.10852e-06
7.48839e-06
3.73119e-07
1.49472e-05
-1.53203e-05
-3.60441e-05
2.10475e-05
1.49966e-05
-5.85856e-07
-3.55964e-06
5.35316e-06
-1.56249e-05
-2.58443e-06
-5.18876e-06
0.00011382
-7.09471e-05
-4.28732e-05
-7.52013e-06
1.4008e-06
6.11932e-06
-7.04452e-06
1.1424e-05
-4.37946e-06
4.41314e-06
-5.31807e-07
-3.88133e-06
-8.80713e-06
1.80679e-06
-1.54338e-05
5.35579e-06
3.45248e-05
-3.21309e-05
-2.3939e-06
-1.39315e-05
-8.61962e-07
-1.34301e-05
1.04658e-06
-2.63311e-06
1.40101e-06
1.23209e-06
-1.23369e-05
-3.07621e-06
-6.23557e-06
-5.22193e-06
-1.28427e-05
1.55243e-06
1.12903e-05
1.12701e-05
1.33102e-05
-2.45803e-05
-7.8306e-06
1.57161e-05
-7.88551e-06
-3.94168e-06
-8.90131e-06
1.2843e-05
5.36007e-05
-5.72698e-06
-4.78737e-05
3.31012e-05
-1.80095e-06
-3.13003e-05
1.38224e-05
-2.22141e-05
-2.71732e-05
2.18786e-05
6.71254e-06
-4.746e-06
-1.96655e-06
1.45884e-05
-1.54075e-05
8.19166e-07
-2.97968e-05
-1.09748e-05
-1.16979e-05
-3.07094e-06
-4.74852e-06
-8.46052e-06
2.01938e-05
-3.53562e-05
1.51624e-05
-4.18919e-06
-6.70844e-07
7.65371e-06
-6.83657e-06
-8.17139e-07
-1.19255e-05
1.33638e-05
-1.43833e-06
-7.1655e-06
3.24034e-06
3.92516e-06
-7.03496e-06
1.92593e-06
9.42272e-06
-9.58335e-06
-5.64045e-06
-7.97259e-06
-3.39638e-07
4.33045e-06
-3.99081e-06
-8.86805e-06
1.40856e-05
-5.21755e-06
-7.38961e-06
1.04776e-05
-3.088e-06
-8.26955e-06
-2.30403e-06
-1.58766e-06
6.97569e-06
-5.38803e-06
1.21042e-06
1.04572e-06
-2.25613e-06
7.17587e-06
3.03261e-06
3.62291e-06
4.42018e-06
-3.83399e-05
1.01611e-05
2.81788e-05
-7.18108e-06
6.0003e-08
2.73575e-06
-1.0366e-06
4.31709e-06
4.0744e-06
-2.15845e-05
2.15953e-05
-1.08527e-08