/*--------------------------------*- C++ -*----------------------------------*\
  =========                 |
  \\      /  F ield         | OpenFOAM: The Open Source CFD Toolbox
   \\    /   O peration     | Website:  https://openfoam.org
    \\  /    A nd           | Version:  7
     \\/     M anipulation  |
\*---------------------------------------------------------------------------*/
FoamFile
{
    version     2.0;
    format      ascii;
    class       volVectorField;
    location    "3";
    object      U;
}
// * * * * * * * * * * * * * * * * * * * * * * * * * * * * * * * * * * * * * //

dimensions      [0 1 -1 0 0 0 0];

internalField   nonuniform List<vector> 
65364
(
(-13.7234 19.8199 0)
(-29.9341 -10.8165 -6.79982e-16)
(-31.1015 5.7815 3.86754e-16)
(39.5551 -17.521 -2.14892e-16)
(22.6593 6.84324 0)
(-28.5371 37.6345 0)
(-48.3907 -10.8326 2.05903e-15)
(-67.8716 24.2966 -2.23252e-17)
(-18.7587 -33.1525 0)
(-56.8634 -11.171 -5.67295e-16)
(-55.7132 -5.25125 -1.06467e-16)
(-20.5445 1.00367 0)
(2.05516 -3.41418 3.80441e-15)
(-29.7382 -7.13511 0)
(-3.19577 19.7879 -1.73321e-18)
(14.666 8.47639 -3.67425e-18)
(-25.298 13.1888 1.08514e-15)
(-17.9934 -12.2078 -6.52583e-16)
(-4.9433 -39.8935 -3.1186e-16)
(-7.6779 -31.0692 8.11609e-16)
(37.978 -4.69174 8.15704e-16)
(-8.39867 -3.7786 1.01751e-15)
(-2.6778 8.19033 7.59777e-16)
(6.39409 -15.5227 -7.77106e-16)
(-46.8921 -7.37387 0)
(-31.7179 -13.2032 2.68524e-15)
(-82.2945 7.92253 -3.37677e-16)
(-41.196 15.5984 0)
(-9.32993 -16.9873 0)
(-17.688 9.92862 0)
(-112.897 13.7874 1.06281e-16)
(-180.034 -23.3126 -2.02985e-16)
(-17.6731 -30.4573 6.45698e-16)
(-25.1852 15.0148 -5.65039e-16)
(-41.2425 -3.62971 0)
(-26.8422 -25.6201 1.77077e-16)
(-19.093 -28.8599 -2.19266e-16)
(-49.4391 35.0211 0)
(13.0285 26.3524 7.54853e-16)
(12.5972 -7.40261 -1.69508e-15)
(-19.6482 37.3653 1.48836e-15)
(11.2684 -3.85147 0)
(11.9515 -8.70421 0)
(-26.0073 -21.4192 1.87688e-16)
(-38.8664 -63.2342 -1.00151e-15)
(-28.4875 35.8267 5.78163e-16)
(-20.3742 15.0628 -4.71521e-16)
(-8.39914 1.63862 0)
(11.5246 -4.62997 0)
(-4.05814 24.4513 0)
(0.553116 15.6966 0)
(-16.8171 -22.8175 -3.27428e-15)
(-34.388 -21.3909 -1.10875e-15)
(21.3765 -13.4056 1.70934e-15)
(-8.44381 -34.8023 -1.17764e-17)
(-111.367 7.13603 2.73195e-16)
(-181.689 -11.3408 -5.12079e-16)
(-3.81327 27.1391 1.77339e-15)
(51.5386 70.7019 1.57214e-15)
(15.5798 2.24053 -1.1077e-15)
(20.3788 -29.6224 1.44771e-15)
(-42.94 -19.8069 -2.67229e-15)
(-54.2835 22.7981 -3.0974e-15)
(-0.674533 -42.238 7.96163e-16)
(8.17249 0.202165 -4.83226e-16)
(-48.9038 -16.2677 -8.96874e-16)
(8.09257 -27.6707 2.91405e-15)
(-20.9243 15.7618 0)
(45.0753 -19.597 2.50903e-15)
(20.1589 23.2073 0)
(-11.2617 21.8262 0)
(23.3548 -51.7123 -1.51447e-18)
(-45.6305 -18.0821 -3.62118e-16)
(-60.1686 -9.56772 1.98609e-16)
(-49.3797 7.70783 -1.0365e-16)
(56.3005 -19.1085 -1.50267e-15)
(19.5227 6.22946 -9.82245e-16)
(31.2266 -9.38675 0)
(-14.6843 -16.0501 -1.57802e-15)
(-47.3905 -11.6451 0)
(-41.7317 1.43961 -2.29386e-15)
(-14.3441 1.20929 -2.6601e-16)
(-19.1763 -7.46579 2.7325e-16)
(-80.5438 54.726 -1.4293e-15)
(-16.2431 -13.8975 1.60954e-15)
(12.9046 10.3691 0)
(-3.83859 22.8742 0)
(-5.53547 19.9322 1.81119e-17)
(15.6136 -82.9965 0)
(-12.4639 6.83586 -6.43344e-17)
(-4.74838 -16.2029 9.53733e-17)
(-38.6829 -18.4809 8.34758e-17)
(-50.8349 34.1241 -1.55962e-16)
(22.7317 -45.2476 0)
(22.7431 -14.363 -3.19658e-15)
(-14.4886 7.41496 1.72869e-16)
(-48.8583 -47.9658 2.28549e-15)
(-46.3417 15.5606 3.14822e-16)
(-7.34934 -1.08892 -2.43752e-14)
(30.0353 40.8396 1.11424e-16)
(-35.2179 -23.3719 4.34625e-16)
(-76.6405 47.05 -3.45816e-16)
(-28.969 36.3172 -1.63731e-15)
(24.1851 22.1723 1.69348e-15)
(15.5373 -4.23686 2.48898e-15)
(18.1684 -22.8341 1.60749e-16)
(-26.6329 20.4608 -1.56684e-15)
(-54.5914 20.2221 -1.3899e-15)
(-37.6583 -56.7068 0)
(6.71765 -0.911819 -7.95229e-14)
(32.1438 -20.0409 9.78188e-16)
(10.1267 -19.2669 0)
(-7.49813 -0.330303 -6.92696e-16)
(-4.7468 -2.17225 1.1437e-15)
(8.11344 -25.1494 -1.5985e-15)
(-22.279 17.9139 -2.17783e-15)
(-32.9273 24.4981 0)
(-9.01256 35.5809 1.19472e-15)
(-46.6918 33.6363 -5.21399e-16)
(-25.1148 16.5694 0)
(2.78029 -3.02818 2.85764e-16)
(13.5149 -27.7821 -3.7662e-16)
(-117.983 -4.33468 -4.81419e-18)
(-51.6517 -2.19598 -8.50783e-17)
(-29.9532 -32.2747 0)
(25.4427 -28.3433 -1.47302e-15)
(11.0495 25.2948 1.10685e-15)
(-22.4214 -16.754 6.80558e-16)
(-5.8548 -22.9744 -7.6781e-16)
(-8.05504 9.64718 1.17287e-15)
(-36.0106 -6.80041 -9.32936e-16)
(-10.4298 52.8707 0)
(-2.693 9.4887 0)
(-2.39919 -20.7934 0)
(-14.1669 -5.40309 0)
(-18.8918 18.6868 0)
(-39.8442 0.057571 1.49134e-15)
(-15.2368 6.5385 0)
(-7.57738 -13.0659 1.77479e-16)
(-4.34502 -8.08992 0)
(-67.7069 -32.4259 -6.03202e-16)
(-74.4148 8.48082 -4.06668e-17)
(13.9733 -16.9428 -6.17301e-16)
(-30.7442 -26.4298 2.09805e-17)
(-7.24095 12.7528 -1.05691e-15)
(-43.5565 11.2293 0)
(-29.4903 -12.5172 0)
(39.2236 27.5524 -1.43433e-15)
(22.2154 50.0855 7.72584e-16)
(-88.8381 65.0193 1.00328e-16)
(24.5227 73.416 4.16187e-16)
(24.1189 -10.7322 0)
(-13.2589 -6.0118 0)
(-13.5157 1.4716 0)
(0.517278 -9.28202 0)
(-7.23956 -0.698409 0)
(-117.576 -43.0993 3.34488e-17)
(-45.5001 4.56618 1.44729e-15)
(-6.17153 14.9131 -7.13624e-16)
(15.0911 -11.427 2.32085e-15)
(-22.0034 -9.27449 -9.5293e-16)
(-11.9723 3.21669 -8.2953e-18)
(-18.1523 -5.91188 1.50565e-17)
(22.5855 6.47869 7.73384e-16)
(3.73066 8.23116 0)
(-73.2148 5.69678 1.41911e-17)
(-103.962 -5.4082 -2.71007e-17)
(-22.1015 31.05 2.35614e-15)
(28.757 19.4635 0)
(13.5669 15.6371 0)
(-40.8446 -19.7444 8.2636e-17)
(-34.1607 11.5858 -4.34507e-17)
(-18.1493 6.56649 -7.93303e-16)
(-15.984 -4.96541 1.36168e-15)
(-4.73939 -43.497 0)
(-49.2722 -18.883 0)
(4.06746 3.82155 3.06261e-15)
(-57.0601 21.3153 0)
(6.9845 14.4193 8.20875e-16)
(-37.2682 13.8186 1.30384e-15)
(-2.79118 -13.7614 0)
(-16.3391 24.1267 0)
(6.42388 -4.12438 9.13443e-16)
(-28.8211 -48.4484 0)
(-40.3748 -7.73922 3.32081e-16)
(-28.3455 6.14322 -1.9811e-16)
(9.60705 -9.72281 0)
(4.52163 -0.609275 2.9045e-16)
(21.0366 -2.36241 -5.24297e-16)
(-44.7595 77.6414 0)
(-3.36232 -42.0718 0)
(-64.0156 -5.27135 4.46497e-16)
(-10.8383 -29.2628 6.12728e-15)
(-16.088 -2.26363 -3.64607e-16)
(-5.69182 28.8103 1.79832e-15)
(-12.6703 -9.13343 8.00799e-17)
(-17.3688 7.2712 -4.27822e-16)
(-22.2678 -12.0753 1.17003e-16)
(24.0408 48.5236 0)
(-37.9686 9.7185 0)
(-12.0076 12.2626 -2.76561e-15)
(-1.07776 1.38289 4.34197e-16)
(-36.4762 3.58972 0)
(-36.6109 -2.0491 0)
(7.75921 16.92 5.05257e-16)
(-37.3874 3.00294 0)
(-14.91 -15.7816 -1.09992e-15)
(-11.2621 6.17125 6.57626e-16)
(-7.58412 11.9471 0)
(10.9506 -8.86235 -7.83332e-16)
(-35.9509 -14.3486 6.40445e-16)
(-17.9896 4.8906 1.40396e-16)
(-30.2167 -9.39409 -2.50394e-16)
(19.0327 -42.874 -9.60289e-16)
(-60.7502 -19.1901 1.3834e-16)
(-39.8355 7.60991 -8.13884e-17)
(-84.1303 58.9797 -1.49596e-16)
(-8.72531 -66.2568 -2.55338e-16)
(8.21269 4.53497 0)
(-62.8736 7.20906 -1.17489e-15)
(-18.8529 -47.8243 -1.56847e-15)
(-52.7519 -29.9326 1.95351e-17)
(2.46029 -2.54236 1.06847e-15)
(-40.2356 13.6999 5.15699e-18)
(-52.39 -25.4209 -9.68151e-18)
(-37.3016 -37.438 -1.44446e-15)
(-44.691 -14.4122 1.31713e-15)
(-44.1634 4.28989 -3.97423e-16)
(-17.8067 -1.40895 0)
(-68.8724 -69.7937 1.06016e-17)
(-101.881 -25.864 0)
(-73.0987 15.3919 1.49615e-16)
(41.9725 -45.3497 5.79342e-18)
(-22.1723 17.0789 2.95757e-15)
(20.5874 17.2312 -4.81683e-16)
(-7.08047 22.6946 4.72569e-16)
(-86.2949 -21.7652 0)
(14.3359 37.8641 0)
(12.5026 -4.0164 1.60361e-16)
(31.6016 -18.3198 0)
(-15.5318 -44.0433 1.44603e-16)
(11.4894 -38.6353 1.60492e-16)
(-1.19928 -12.376 -2.39586e-16)
(-12.109 -25.2863 -5.32236e-16)
(-13.1416 -64.9922 8.03869e-17)
(-48.6064 31.2906 -7.98795e-16)
(-49.2251 13.7518 -1.2657e-15)
(-35.6683 -18.8168 -1.25777e-18)
(-47.2618 47.4594 2.8508e-15)
(-58.3905 -14.6749 0)
(-45.8011 48.5633 -1.86799e-16)
(-14.7862 -23.8597 2.31448e-16)
(25.7176 30.9919 -8.96484e-16)
(-20.5399 34.1727 8.78747e-16)
(-10.7156 -2.06066 -2.29672e-16)
(-10.4963 4.48174 3.63991e-16)
(33.8022 -10.2993 0)
(43.0092 26.9422 1.71254e-15)
(-48.665 26.1355 -4.18567e-14)
(11.206 -10.141 -4.39417e-16)
(17.1621 28.8544 0)
(0.517226 -5.09012 -5.37043e-16)
(-40.7573 -6.30179 0)
(-70.3474 47.9433 8.84836e-17)
(-38.803 29.002 -8.80688e-17)
(12.0541 -8.9839 -2.06735e-15)
(-0.814622 0.999373 5.33082e-14)
(-34.8648 18.6474 2.21877e-15)
(-27.7144 -28.8183 2.97314e-18)
(-62.2629 31.9627 -2.34438e-18)
(10.1128 -5.25502 1.66462e-15)
(-0.490371 10.1591 -1.63202e-15)
(-70.0833 -22.1645 0)
(16.6357 43.3284 -6.44264e-18)
(-0.938075 -16.1785 3.86848e-17)
(-6.82352 -22.8787 0)
(-17.9795 16.2611 0)
(3.63536 7.94831 -3.35765e-17)
(13.6653 24.3354 0)
(-37.0846 -12.3391 0)
(-23.6674 3.75467 0)
(-21.8942 64.1754 0)
(-35.1419 -50.0354 3.64533e-16)
(-54.217 22.8257 1.35226e-16)
(-40.0268 -22.6258 -1.88365e-16)
(-21.3691 -1.3358 -1.1065e-15)
(-19.5935 -12.3493 1.53516e-15)
(-12.7666 28.0879 3.84704e-16)
(-4.59982 6.43204 -4.25654e-16)
(-37.1703 -0.978766 1.38044e-15)
(-43.6982 -22.3876 0)
(-59.3046 19.6007 0)
(-29.2528 19.8888 0)
(-29.0177 -28.4377 0)
(-8.36666 -3.6067 0)
(-19.3926 5.68045 1.00979e-15)
(15.2505 2.78478 0)
(8.60305 20.7979 1.52756e-15)
(12.6848 10.7818 1.17231e-16)
(-55.3483 35.2475 7.86771e-18)
(-38.3038 -35.148 0)
(31.4234 13.1693 8.59287e-16)
(9.89047 25.181 -8.68451e-16)
(9.07534 -29.1383 0)
(-43.3944 14.2316 -6.18557e-16)
(31.2148 -12.1386 0)
(11.6621 2.94773 0)
(-66.1289 -3.68592 0)
(5.61635 22.7997 1.75317e-15)
(-24.1753 7.4638 -1.49352e-15)
(-62.0037 26.092 2.0209e-16)
(-42.2628 -13.8651 -1.04169e-16)
(-65.912 18.9847 -1.53031e-15)
(-25.5646 -31.338 0)
(-17.9787 16.5909 0)
(-2.82443 25.7137 0)
(-11.2352 10.2489 1.7346e-15)
(-18.6941 -14.5353 1.43651e-15)
(-1.60801 6.12221 -1.07174e-15)
(-8.32416 -1.05284 -4.49068e-16)
(-44.5618 0.516164 0)
(2.77327 12.938 4.7362e-16)
(9.54727 -3.60024 2.0542e-16)
(0.672006 10.0257 -1.42638e-16)
(-60.4758 -1.49208 -1.27564e-16)
(-84.769 6.03183 -2.49418e-16)
(-6.20308 -14.5899 0)
(-77.6622 24.3476 0)
(-5.19274 0.0384164 2.50046e-16)
(1.62322 -12.5935 1.74434e-15)
(-59.3664 -29.0621 -2.93545e-15)
(-14.1203 -45.7335 -2.69594e-16)
(-8.11705 24.6396 1.51856e-16)
(5.33979 6.89529 -1.74037e-16)
(-12.8147 -15.2719 1.42481e-17)
(-60.3723 -5.49397 0)
(3.61456 -12.9701 -2.73616e-15)
(15.0847 17.1024 0)
(-106.569 -24.1432 0)
(-65.5911 11.9748 0)
(2.31904 2.5957 -5.29974e-16)
(-31.0598 17.4956 1.79201e-15)
(-39.546 -6.54869 0)
(51.0241 7.02994 1.18221e-17)
(8.14136 -9.1299 1.0501e-15)
(-19.1752 -23.9585 2.92622e-15)
(-42.7836 50.8712 2.5002e-16)
(-60.342 -2.16777 -1.22953e-14)
(6.37452 -43.8803 0)
(-24.5444 1.91696 -1.45342e-18)
(-16.414 5.14094 4.08688e-18)
(-46.467 -1.52402 -1.78937e-15)
(22.4676 15.0988 0)
(25.0773 -13.7503 0)
(-30.8613 -25.7395 5.64758e-16)
(7.80181 -7.44763 -4.75248e-15)
(-26.2326 -38.6665 8.15497e-17)
(-1.89701 5.92322 1.94227e-16)
(11.3362 -11.2224 -3.49659e-16)
(-181.915 -41.0192 -4.16361e-17)
(-112.723 24.776 -1.07941e-16)
(-142.281 1.8167 3.57059e-16)
(-64.9102 14.6736 -2.46421e-15)
(-29.6063 -46.6432 -1.02965e-17)
(-5.19092 4.40475 1.00399e-15)
(-48.0206 18.8607 2.23486e-16)
(-21.0333 20.5286 -1.1556e-15)
(-13.2113 -13.7811 0)
(-20.3211 -22.2262 -3.00919e-16)
(-12.0015 12.6869 1.6701e-16)
(-26.541 10.8924 -1.12568e-15)
(-42.1817 -5.13959 0)
(24.215 32.4209 1.02747e-16)
(-48.7408 30.26 -1.39343e-15)
(-5.79848 31.8424 -1.00612e-16)
(-81.3749 -2.70286 1.32973e-16)
(8.17646 4.26843 -5.69259e-16)
(20.899 -15.3345 9.47915e-16)
(-12.6133 14.3423 1.6241e-16)
(-51.9949 -5.78795 -1.68508e-15)
(-7.25347 -2.52538 -5.9227e-16)
(-12.5204 -5.3751 -6.27044e-16)
(-17.5896 -1.58173 1.03822e-15)
(8.76274 24.9783 -5.5129e-17)
(28.9666 -45.4567 1.01663e-16)
(7.19283 -74.8201 0)
(-56.7034 12.0348 0)
(-55.5841 -24.6734 0)
(-18.2429 -17.1386 -1.60836e-15)
(-41.4297 8.20729 1.30146e-15)
(13.8944 -11.286 -5.66112e-16)
(-1.31552 -17.8349 8.10347e-16)
(-16.8567 13.0075 -6.98796e-16)
(14.2472 -25.2433 0)
(2.79148 -1.72684 1.95064e-15)
(6.22775 -2.67801 -1.46477e-15)
(-27.5958 -16.103 0)
(-57.6061 -10.948 -3.22421e-15)
(2.57168 4.58802 -6.45435e-15)
(7.25815 0.670321 8.2741e-16)
(-2.76398 -13.5805 -1.73904e-16)
(12.877 -18.1226 1.27192e-16)
(11.3676 39.852 -7.8001e-16)
(-37.8217 -5.46359 0)
(13.3075 -21.9386 -6.71899e-16)
(-7.75496 -12.8023 3.01784e-16)
(-16.7006 33.1013 -7.90425e-18)
(6.88823 34.2505 -1.13661e-15)
(3.56758 20.341 7.91111e-16)
(24.5972 -10.2859 -7.88356e-16)
(-22.2885 18.6781 0)
(-20.4003 9.84958 1.71256e-16)
(-140.498 -53.0566 3.39767e-16)
(-91.1891 31.0716 -1.78054e-16)
(-45.4818 -29.727 5.31129e-16)
(-26.3598 12.7294 -2.71987e-16)
(-56.0062 23.0877 0)
(-38.556 -28.6959 0)
(56.2252 -4.17672 0)
(4.60811 -9.98942 1.98809e-16)
(-31.3061 22.4973 -1.70021e-16)
(90.3151 36.647 1.11569e-17)
(-46.293 24.4751 1.30155e-15)
(4.16345 -26.9512 0)
(-26.5591 -19.0303 2.26139e-16)
(-57.2349 -29.3513 0)
(4.25633 -3.09741 0)
(6.23743 22.9931 1.10324e-17)
(-17.8295 3.17003 -9.49089e-16)
(122.85 58.7996 -1.29789e-14)
(-48.6144 14.4275 3.68112e-16)
(-49.785 -14.602 -3.35227e-16)
(15.099 60.2526 6.56264e-17)
(-17.1411 -4.7717 4.1882e-16)
(-6.6857 -9.61382 -1.00827e-15)
(-8.14835 -0.491207 1.45043e-15)
(-15.2595 -1.24792 -7.97464e-17)
(43.033 -71.9782 0)
(31.1236 -5.83936 -3.91731e-16)
(18.8942 14.4568 3.85866e-16)
(-57.2384 -11.3008 -3.02376e-15)
(8.09926 -32.3515 0)
(8.76398 15.4555 3.4932e-16)
(-24.1742 -3.18945 -2.90674e-15)
(-13.4374 -9.10052 0)
(-37.863 -39.6605 0)
(14.5099 26.1769 -1.26371e-15)
(8.61887 -1.59087 -1.7262e-16)
(-3.33563 -2.94912 1.14188e-16)
(-35.7273 -24.001 -1.06514e-15)
(-14.9525 -9.41962 6.88099e-16)
(-10.1601 -20.5606 0)
(-43.4724 33.9061 0)
(-72.2893 -35.7348 1.78519e-17)
(-52.1178 20.421 -9.29965e-18)
(-3.98601 13.636 0)
(-15.5293 12.6106 4.01884e-17)
(-8.70669 -6.08691 -2.20484e-17)
(-115.779 34.5785 -6.26756e-16)
(21.9346 -39.9095 -6.19906e-17)
(-46.0096 3.63738 -1.48576e-15)
(-0.961032 18.4871 1.24954e-15)
(-4.15592 21.5265 0)
(-11.1724 5.32439 2.75534e-15)
(42.9158 1.54448 1.14575e-15)
(16.1725 -1.4615 -5.42632e-16)
(-7.52313 -16.1058 5.05657e-16)
(-11.4198 22.7387 -8.79363e-16)
(16.1657 17.0808 -6.08453e-16)
(-21.0341 -19.2399 -1.5764e-15)
(-45.7836 25.7979 1.36683e-15)
(3.77483 -13.2046 0)
(8.32937 18.0337 0)
(13.5252 -2.76283 6.1171e-17)
(-63.8537 -3.96214 6.62445e-16)
(3.32964 0.275993 -6.77477e-16)
(-0.923768 5.20259 4.13199e-16)
(-10.63 -4.57807 6.05882e-16)
(-15.4396 3.9701 -5.0845e-16)
(-32.2353 -18.3906 -3.40341e-16)
(-34.7531 9.80738 -2.06982e-16)
(-67.6454 30.6903 2.34441e-16)
(-34.1644 -27.9668 -2.95454e-16)
(-7.82827 -7.6497 5.3804e-14)
(-14.2192 -17.202 -6.53147e-16)
(-2.41515 -6.95731 8.06257e-16)
(1.55298 -5.48427 0)
(-7.3148 15.7826 6.28761e-16)
(0.0734293 -14.8602 -7.82372e-16)
(78.5784 9.05883 0)
(11.4334 -5.91366 -7.8949e-16)
(-54.9786 -29.1449 -6.97081e-18)
(-47.2735 16.3955 4.53506e-18)
(-4.08363 -35.1038 -6.40615e-16)
(21.4053 -0.061825 8.46389e-16)
(21.864 45.5919 0)
(-27.1421 -12.2417 7.72735e-18)
(10.9135 -4.6412 5.43092e-14)
(-30.9242 -28.321 -1.03814e-16)
(14.8805 -0.755956 -4.10304e-17)
(-4.90624 3.50072 7.55576e-16)
(-33.791 -22.9925 0)
(-75.7446 45.1598 -1.7325e-15)
(-20.9985 -14.4194 1.64088e-15)
(22.8121 -21.0344 0)
(33.8719 3.94222 0)
(-15.8139 -22.3935 8.4665e-16)
(-41.8527 20.5219 -6.86885e-16)
(22.5281 -5.17976 -6.4441e-15)
(131.588 17.2102 0)
(16.7283 21.6344 1.02508e-15)
(-24.1695 45.4954 -9.94419e-16)
(-45.8097 -66.0898 7.81365e-17)
(24.7741 18.3872 3.85518e-16)
(36.7834 -14.0493 0)
(20.377 20.2108 0)
(83.5928 25.3987 -5.65957e-15)
(2.20631 -40.0107 -4.00836e-16)
(-10.962 23.942 2.60974e-16)
(-67.0034 11.6627 -5.29074e-16)
(-61.8054 43.1962 1.55412e-15)
(-9.09227 -19.1626 -1.29492e-16)
(-95.9585 15.2666 2.57818e-16)
(-107.831 -17.6885 -4.12237e-16)
(-44.6387 -24.6222 -3.12814e-15)
(28.7142 -15.5113 0)
(-4.80223 -6.32484 -2.89143e-17)
(-14.2455 -15.9587 1.90833e-15)
(14.8752 -3.86304 0)
(-5.39069 -7.76884 0)
(13.1237 1.8356 9.00972e-16)
(-19.5664 -20.1738 -9.20672e-16)
(23.6051 -15.2397 1.24723e-16)
(13.2219 4.59017 -7.08078e-17)
(-36.9678 19.4444 7.11423e-16)
(-34.5979 -33.094 -1.19544e-15)
(-19.2578 -48.8354 0)
(-18.0093 4.0236 1.02107e-15)
(-55.6998 -1.53362 -1.80323e-15)
(-1.15694 -18.7403 0)
(21.011 -69.0637 -2.78149e-16)
(-16.3489 -60.2244 -3.64971e-16)
(-77.0479 -49.7221 -8.21142e-17)
(-32.9235 29.7758 0)
(49.0165 -40.9128 -1.39816e-16)
(-50.1145 27.0215 -1.38096e-15)
(-39.5221 -5.15912 0)
(-24.8474 -0.919681 0)
(3.20681 22.9519 -2.21231e-17)
(-36.7426 -1.16162 1.53242e-16)
(-27.7605 -23.4945 -2.56371e-15)
(7.33001 -5.68076 0)
(-8.25229 16.9626 0)
(-19.8658 -55.8708 1.67082e-15)
(-31.0168 -3.13434 -8.25451e-17)
(-32.2129 6.47718 1.58274e-16)
(22.3792 -11.62 -9.04876e-16)
(-27.1723 0.810339 0)
(-21.4749 -12.1241 0)
(11.9527 4.06662 0)
(30.077 -29.7063 0)
(2.56005 -3.71403 0)
(-16.0408 -28.8416 2.47908e-15)
(5.88965 7.60458 0)
(-38.4851 -8.41627 0)
(-37.9227 -11.0655 0)
(-28.0731 10.4738 1.21889e-15)
(-25.5185 8.9383 -9.4257e-16)
(-17.9485 -15.9281 1.36384e-15)
(12.1323 5.74103 8.52366e-16)
(-12.8402 20.3297 -8.49607e-16)
(2.70978 -40.1833 3.03693e-16)
(-54.6937 45.7178 6.63991e-16)
(0.915965 11.4011 0)
(7.46624 3.98785 0)
(-35.3944 35.9649 -2.12985e-15)
(-3.67008 16.8643 -6.74729e-15)
(27.9423 29.7659 0)
(-20.7372 36.4437 0)
(-30.0145 -4.20034 -7.72221e-16)
(-76.8805 -11.0008 0)
(-36.7107 -22.1476 -8.61713e-16)
(-80.7653 46.3183 0)
(-17.1839 15.8008 0)
(-54.5117 -3.533 1.39409e-15)
(51.2004 15.5204 0)
(-109.116 -3.74194 -4.40331e-17)
(-170.63 10.5027 8.90772e-17)
(6.44952 -0.582768 -4.25764e-17)
(-5.72231 -1.68401 -1.45358e-17)
(-15.0436 6.06009 -1.5637e-15)
(15.2732 -24.0718 0)
(-0.28434 -36.956 -2.21831e-16)
(-23.8326 -8.45369 1.58784e-17)
(-37.3491 15.3442 -2.90892e-17)
(36.9547 0.10011 3.2126e-16)
(-52.1434 1.53573 1.42682e-16)
(7.48944 4.39514 5.30976e-14)
(-18.3308 -23.7914 2.43395e-15)
(-59.3867 41.5391 -2.03684e-15)
(19.6207 7.45587 -9.115e-17)
(-23.9171 -44.0723 0)
(18.0078 64.2626 -2.08071e-16)
(-17.093 -1.98958 -4.90607e-16)
(-10.2122 4.28087 -2.50421e-16)
(-5.93988 -2.96418 1.4084e-16)
(-14.1386 -1.66002 -2.05577e-15)
(16.3152 -53.5229 1.0603e-15)
(-0.386161 31.3772 -1.05928e-15)
(13.8466 -2.46337 -5.61319e-16)
(5.26783 -26.0347 0)
(-16.1796 15.5002 0)
(-39.851 -6.08619 -1.65523e-15)
(-41.0335 12.9368 -3.26916e-15)
(22.5412 3.37768 0)
(49.4954 -10.5236 0)
(-22.0051 -4.78252 0)
(-14.937 33.5178 0)
(9.05525 -10.5491 0)
(-18.572 53.7711 2.74245e-15)
(-59.5426 -109.409 -4.72484e-17)
(-32.8075 61.0665 3.59586e-17)
(-48.3357 24.9968 -5.41983e-16)
(-30.3167 32.0164 0)
(-87.7363 9.53847 3.98756e-16)
(-97.6076 -17.1651 -6.49271e-16)
(-33.0335 -10.2846 -1.85976e-16)
(-90.4759 15.2966 1.36967e-14)
(23.9671 -14.3894 -5.00937e-16)
(19.1254 -4.57239 7.08349e-16)
(3.86831 8.63067 0)
(-51.1507 -14.4057 2.83604e-16)
(-36.4166 71.7343 -1.40988e-15)
(-68.1338 30.3642 0)
(28.8066 5.2232 -8.81112e-16)
(15.5639 15.9201 8.94961e-16)
(-6.93864 15.7079 -9.55015e-17)
(-20.3548 18.8769 -5.6244e-17)
(-35.4959 -35.3881 1.05028e-16)
(-0.562252 -60.2203 4.05366e-16)
(21.5471 24.4626 -1.09996e-15)
(12.4103 -37.0834 1.58908e-15)
(6.29319 11.4429 1.39657e-15)
(27.0658 14.8418 6.95235e-16)
(-21.211 -37.4698 -1.60456e-16)
(-24.2778 29.7792 1.00355e-16)
(8.07524 17.1641 2.66678e-16)
(-25.2825 20.4322 4.88885e-16)
(-5.70076 15.0375 5.78907e-16)
(12.8255 -22.4969 -1.98029e-16)
(2.30507 15.7806 1.87151e-16)
(-27.9769 22.4541 0)
(-34.1942 0.811394 1.78731e-16)
(-31.9946 -5.82326 4.38666e-17)
(-9.72284 -22.8764 -2.01351e-16)
(95.1763 122.504 0)
(-26.6005 28.8671 8.80092e-16)
(5.44576 -8.47683 -4.73131e-16)
(-15.9689 17.5243 0)
(1.97272 -16.4869 0)
(-33.1242 -43.1441 6.87877e-17)
(-12.4746 3.75233 -8.01021e-17)
(-28.1764 -7.75529 1.78417e-15)
(-116.377 -24.9194 8.32179e-17)
(-184.101 49.7986 -1.61901e-16)
(-42.6988 -37.6412 8.36308e-18)
(-41.2331 21.174 -6.84287e-18)
(-110.883 22.2777 2.8691e-15)
(4.32243 5.85724 0)
(-20.2776 10.709 1.37018e-15)
(-16.8804 -19.1393 -1.96906e-15)
(29.7365 -44.1141 1.85298e-15)
(14.7468 0.774702 2.13445e-16)
(-33.475 -12.6862 7.24519e-17)
(-16.0951 -35.7411 7.84253e-17)
(40.3738 -14.6422 0)
(-34.1957 -8.68588 -1.06511e-15)
(18.6108 46.3845 5.0404e-15)
(-30.9535 -17.8944 2.52688e-16)
(-25.5769 3.73549 -1.10228e-13)
(20.1117 -4.64999 0)
(-83.0613 -15.656 -2.46991e-14)
(-1.66253 12.0693 -1.68858e-17)
(-15.9459 9.19864 2.74998e-15)
(19.5819 -38.7766 -6.74528e-16)
(-17.8044 -11.0503 4.18952e-17)
(-64.4596 -9.27094 0)
(-61.9605 45.899 -1.59098e-15)
(1.36671 -0.726313 1.70405e-15)
(-25.115 -19.8482 3.8877e-17)
(-11.1036 -13.7161 -1.60996e-16)
(-51.206 -19.1475 -1.94651e-17)
(-5.93358 -3.08396 0)
(-7.59377 6.38708 -3.96515e-16)
(-45.5317 34.1129 -3.18652e-16)
(55.2004 0.477049 0)
(-37.2111 -6.69004 6.97176e-16)
(-53.3657 7.35831 -1.16428e-15)
(-8.50648 1.08849 5.76721e-17)
(7.54906 -4.73893 2.67653e-16)
(-32.4584 -14.5843 -3.96363e-16)
(-20.5317 7.93373 2.27262e-16)
(-50.9691 46.1309 -8.35683e-17)
(23.8113 -21.2926 1.9914e-16)
(-1.94043 -5.01706 -2.27205e-16)
(51.3841 -20.5846 1.4713e-15)
(-0.801583 3.28238 -1.47642e-16)
(-34.1823 0.820066 0)
(45.3596 86.282 2.58335e-18)
(-68.1823 60.4711 7.13353e-16)
(-13.471 -17.6376 -8.05923e-16)
(-21.3591 -26.1926 -1.40117e-16)
(-19.1309 -84.2883 -8.45606e-17)
(-48.625 -17.3925 0)
(-16.3208 3.80533 3.66646e-16)
(18.7624 -30.2132 0)
(24.8648 -26.8726 -8.09211e-16)
(-26.8467 -26.9398 0)
(65.5447 -20.7771 1.07774e-15)
(45.8414 12.9741 -7.149e-16)
(45.926 -17.8682 0)
(40.247 12.4154 0)
(-10.2576 2.62253 0)
(-3.25951 -20.73 0)
(-81.7283 -29.8248 0)
(-141.164 26.1362 3.48516e-17)
(-93.2103 -10.9293 -1.77867e-17)
(-12.2272 -16.5678 0)
(-46.2174 -74.8689 -4.57689e-16)
(-19.0846 -7.81952 1.46692e-15)
(-61.0078 30.5789 2.33102e-16)
(-82.8724 -51.514 -4.433e-16)
(16.7002 -41.6109 1.91968e-16)
(-30.336 39.4107 2.68517e-15)
(-118.032 13.0068 0)
(-194.862 -21.6816 0)
(-26.0168 -38.4156 1.12932e-16)
(-28.5817 26.8979 8.44981e-16)
(-16.2059 -36.116 -5.91749e-16)
(-34.1627 17.3174 1.4386e-16)
(-42.7519 -32.4824 -2.60198e-16)
(-53.2988 21.433 -1.08962e-17)
(-61.203 -38.5562 1.94611e-17)
(25.0279 37.7902 0)
(5.23943 -14.7127 0)
(-7.04977 -13.2419 0)
(-43.8535 -37.6167 -2.11224e-16)
(-80.8078 31.3717 0)
(-32.9885 -38.6453 8.44509e-16)
(-18.8564 -16.8625 -8.23384e-16)
(-63.646 35.7938 7.04363e-16)
(-81.5013 80.085 0)
(1.57178 -9.56992 -1.30847e-16)
(-49.6976 8.54743 0)
(-63.4626 -11.4547 0)
(-24.4357 -46.7521 0)
(-20.9875 11.3156 -7.09767e-17)
(-19.1504 -17.9829 1.28289e-16)
(-74.8907 -16.404 6.19722e-16)
(-7.50019 0.315685 -2.51992e-15)
(-32.2395 -26.3609 7.24408e-16)
(-20.9922 11.9317 -1.35246e-16)
(-25.4374 40.5767 7.9443e-16)
(-65.1949 -17.3551 0)
(-8.71478 -16.7065 2.14181e-15)
(-54.1704 -6.23705 7.09358e-16)
(-21.0693 -28.6863 0)
(-124.923 -33.9919 0)
(-85.6989 19.8338 -4.09576e-17)
(-39.8742 32.4585 -1.4288e-15)
(-2.79693 -16.0539 0)
(-7.35796 -7.8748 0)
(-16.2415 -41.4348 0)
(-28.8775 -8.79513 1.30732e-15)
(-23.3511 34.3914 9.7793e-18)
(-66.1334 -0.690276 9.32358e-17)
(-101.599 2.18409 -1.72711e-16)
(-19.2373 -17.5613 2.00947e-15)
(4.17737 -52.2767 7.24698e-16)
(42.7504 24.4512 7.72635e-16)
(69.5206 -31.5423 -1.17655e-15)
(-31.244 -23.8194 8.14516e-16)
(-58.5779 25.4228 -6.23151e-16)
(-15.1777 -6.56854 1.53522e-17)
(-37.4334 19.0005 -1.39222e-15)
(6.27938 -1.91563 -1.01112e-15)
(-40.4104 10.3457 2.52575e-16)
(-34.0195 -3.30409 -1.33616e-16)
(-48.8677 -30.8109 1.43404e-15)
(-4.66951 -4.73541 -1.5623e-15)
(-7.32498 -6.42445 9.66592e-16)
(-8.89452 -51.3893 4.35547e-15)
(-1.51011 -23.7965 3.91412e-16)
(-7.37886 27.8861 -3.92924e-16)
(2.51992 -11.7383 -1.91379e-16)
(-8.49661 -25.6984 1.32726e-15)
(22.5647 -1.21948 -4.8749e-16)
(70.6659 49.5817 -1.42899e-16)
(3.41192 51.3328 0)
(-29.0292 12.7951 0)
(-27.9741 -14.3639 0)
(16.8022 24.1689 3.15632e-16)
(-5.90285 19.0025 4.61334e-16)
(-9.17029 -19.7725 1.60629e-15)
(-23.835 8.89143 -1.59119e-15)
(4.42786 -11.4645 0)
(-16.3959 20.0412 0)
(36.4346 -13.1651 -5.83398e-17)
(7.22994 -42.2543 -9.34635e-17)
(-20.5156 24.041 2.27761e-15)
(-39.6214 36.0772 1.10779e-15)
(-6.55497 -23.0801 -1.29957e-15)
(-23.0421 -39.3464 -2.48466e-14)
(33.9981 15.5399 8.53508e-16)
(18.7183 22.6882 -8.39287e-16)
(-36.7376 -17.547 0)
(-17.2817 8.94927 -2.68621e-16)
(-28.1039 -19.9852 4.66091e-16)
(11.0353 -27.4903 0)
(25.3085 -3.7088 8.17984e-16)
(22.6508 9.14914 -8.20201e-16)
(-2.01239 -30.8163 1.48972e-16)
(26.7074 -14.3373 0)
(15.5364 13.2691 0)
(34.2118 33.843 1.82335e-15)
(-41.0278 -6.35857 -6.8135e-15)
(-1.37902 -10.3761 -1.5407e-15)
(-3.30445 -33.1897 -1.11271e-16)
(-175.358 13.201 -6.13258e-16)
(-110.423 -4.49728 2.83301e-16)
(-83.3479 30.1602 -4.15788e-15)
(-44.6387 -77.9019 0)
(-7.26474 -25.2757 -3.39663e-16)
(-23.3908 -32.6074 0)
(-22.2127 23.9311 7.52802e-18)
(3.02683 15.4453 -2.20576e-15)
(-70.1222 36.5054 0)
(-33.2563 44.908 -1.51069e-15)
(-0.394944 -4.93611 -9.80208e-17)
(8.69099 -17.7074 0)
(-36.7514 28.2665 1.54626e-15)
(-2.86568 -12.6345 -1.69305e-15)
(19.6827 2.84238 0)
(-20.1961 34.3988 0)
(-46.6814 9.40616 -7.5256e-16)
(-0.228261 -18.3681 0)
(27.9229 -8.31425 6.95938e-20)
(18.678 5.91568 -1.67996e-18)
(1.24526 -30.897 0)
(-18.4212 5.72931 -3.28507e-16)
(-5.49719 -6.16511 4.16106e-16)
(29.8954 -0.961735 -4.64219e-17)
(-8.267 11.0863 0)
(13.0363 -53.6721 -1.57286e-15)
(-24.4274 -16.2939 0)
(-10.2208 -0.51495 0)
(-0.673832 -16.3713 0)
(40.5366 17.7319 5.33479e-18)
(14.2102 -6.12721 -1.68048e-16)
(-36.4865 -0.597782 0)
(65.9386 -8.09255 -1.15115e-16)
(-24.8717 25.7966 0)
(-20.7679 -29.9904 0)
(-16.93 -19.7664 1.51397e-15)
(16.9614 -12.4342 -8.46113e-18)
(-6.76474 -7.03572 0)
(2.41608 -15.9778 7.50602e-16)
(41.8777 8.39981 0)
(31.836 7.15638 1.17451e-15)
(-13.7754 49.5707 4.23493e-18)
(-19.2079 -88.0708 -7.70006e-18)
(-0.191598 36.3615 -5.44058e-17)
(-4.62811 -0.599943 0)
(-42.2945 9.01148 0)
(15.5121 -9.44837 0)
(6.67255 11.6331 0)
(-11.1259 -24.7612 8.31393e-16)
(-32.2165 11.7094 7.87804e-16)
(-92.0247 6.62166 0)
(-56.8469 -7.06236 0)
(-30.3114 -16.3245 -1.57073e-17)
(21.1702 9.24699 0)
(25.0817 17.4646 0)
(-56.8111 6.26319 2.03998e-15)
(8.26709 -2.86986 0)
(-30.2311 32.0659 0)
(-13.1371 31.7896 -2.95222e-16)
(-7.27571 -18.5939 1.65307e-16)
(26.3935 -32.3893 0)
(-19.5325 -23.4265 4.34864e-16)
(4.77373 -20.9937 0)
(-28.7638 30.0883 -1.68988e-16)
(6.18347 37.0923 1.22716e-15)
(-68.1397 59.3233 -7.68399e-16)
(-10.0831 -13.4706 8.50884e-16)
(-39.1342 6.0848 1.29715e-15)
(-24.8834 34.9398 0)
(-2.95388 -16.3026 0)
(-145.818 1.19236 3.94897e-16)
(-95.029 1.32107 -2.05328e-16)
(-6.19982 5.04179 0)
(-6.23406 -18.748 5.63715e-16)
(2.79151 32.4479 0)
(-43.5372 -11.1161 0)
(-7.96304 28.7081 1.54426e-15)
(-36.4563 19.7518 2.09486e-15)
(23.1177 -3.76087 0)
(15.6639 12.2238 0)
(-23.6744 30.6722 7.34319e-16)
(2.02859 -13.5746 -1.65388e-15)
(0.875731 2.7755 1.13181e-17)
(-50.8994 30.0423 1.14315e-15)
(4.56099 -12.295 0)
(-24.4654 20.3745 0)
(-80.3214 6.37834 7.97125e-16)
(-28.4355 -21.1613 0)
(19.7787 32.206 6.7104e-15)
(11.8248 71.706 -1.73503e-15)
(1.68467 -11.1414 2.7627e-16)
(-70.6424 11.5548 -2.52064e-16)
(-93.5724 -21.914 4.59851e-16)
(-16.0335 13.4241 -1.47248e-15)
(-12.2948 -8.14873 1.24989e-14)
(14.591 -2.0703 3.16358e-14)
(18.6403 -13.8232 5.9477e-16)
(9.63069 5.87677 -3.41465e-16)
(-1.2387 2.9527 -3.4891e-16)
(6.5992 -10.1325 4.07723e-16)
(23.0766 13.9965 2.50416e-15)
(-9.06398 -12.1127 3.56464e-16)
(-13.8864 19.8209 -6.23554e-16)
(20.5646 8.84626 -3.63863e-18)
(7.29432 21.0546 3.33715e-18)
(-31.2726 -17.7964 -1.42763e-16)
(9.20664 3.0217 -8.32787e-16)
(13.0289 -5.22883 7.21102e-16)
(-28.6232 -48.5257 -3.11636e-16)
(13.8935 24.7657 0)
(11.9561 18.6348 0)
(14.3147 -24.172 0)
(-8.11246 -28.2339 1.83678e-15)
(-12.0737 19.8703 -1.5146e-15)
(22.1441 -25.7875 1.5341e-15)
(2.22065 -0.244504 1.7948e-15)
(-4.35451 -16.7056 -2.82921e-16)
(-41.4002 70.9466 0)
(-1.56466 1.00964 -2.49904e-15)
(-22.5464 10.0147 2.41838e-15)
(-23.5717 37.9168 1.70666e-17)
(-24.5785 -20.2531 0)
(-17.3872 -49.984 0)
(11.3772 -54.1587 -3.816e-16)
(-39.1847 39.186 0)
(-22.126 32.7276 -1.68861e-15)
(23.8611 -3.20117 1.79269e-15)
(-57.1175 28.5116 0)
(33.5034 34.488 1.78669e-16)
(16.9159 -19.1863 -1.00806e-16)
(11.0571 -37.9967 0)
(-58.7362 -11.6553 0)
(-126.892 -18.0986 -4.05728e-16)
(-85.5255 12.026 2.12812e-16)
(2.70454 -9.51812 0)
(-70.5258 -12.068 0)
(-12.1383 -7.34849 0)
(4.22182 -6.49717 8.02821e-16)
(-2.06527 -54.4754 5.85531e-16)
(-5.21217 32.0484 -3.40321e-16)
(-83.1006 26.6026 7.08033e-16)
(41.0042 -11.9005 -1.17e-14)
(-22.9592 16.2517 5.2482e-16)
(-50.4106 -15.7933 0)
(-46.3484 -4.02211 1.60523e-15)
(8.14705 -22.0288 4.25742e-16)
(-9.87471 12.0979 -3.61092e-16)
(-55.5555 8.16652 0)
(-14.1086 -7.81038 1.01471e-16)
(8.99047 -40.8474 -6.36108e-17)
(-24.0745 -40.5324 1.79421e-15)
(12.4889 5.57338 -7.78913e-16)
(-183.22 9.57425 -1.48299e-16)
(-116.311 -4.14038 7.287e-17)
(-5.16994 -4.22393 0)
(0.579641 -8.58754 0)
(38.941 15.4684 -1.09624e-15)
(-252.825 17.4751 -2.63168e-17)
(-154.285 -8.82043 1.47188e-17)
(-74.2954 26.5088 5.14995e-16)
(-50.7845 -25.0865 -7.03871e-16)
(8.24546 -20.5122 0)
(-17.3647 20.9471 3.09283e-16)
(-43.1172 7.81019 -6.23004e-16)
(-6.46826 -18.2183 0)
(11.5818 -37.9366 8.53163e-16)
(15.9612 26.7051 -1.46911e-15)
(0.812786 0.963691 0)
(-2.03484 -3.629 0)
(-75.3399 4.7973 -2.42349e-15)
(-90.8561 -28.6914 -1.34818e-16)
(-19.6261 -37.4595 4.58582e-14)
(-27.9875 63.5384 0)
(-29.3602 -20.9295 3.24924e-16)
(-33.4733 6.86213 -1.95701e-16)
(-65.4993 -4.85353 0)
(58.2045 -41.6588 -1.08374e-16)
(-0.844082 -4.12894 2.30521e-14)
(65.0056 -56.7123 -1.72188e-17)
(-20.7987 11.2095 0)
(16.8617 10.9257 -1.40278e-15)
(-9.30907 -23.1837 -2.49081e-15)
(-54.7909 -45.8073 0)
(20.1753 20.67 0)
(-16.1612 -30.4831 1.99165e-16)
(4.47648 4.94783 1.81993e-15)
(27.3268 13.6703 0)
(-15.0209 -8.06333 0)
(24.0914 52.5509 2.56293e-15)
(-18.597 -31.8017 9.14974e-18)
(-80.1145 27.2205 0)
(-19.6676 -2.42965 -3.0584e-16)
(-79.9464 24.4952 9.68723e-18)
(1.28273 -37.3033 -7.08778e-16)
(-16.0302 -3.84319 -6.75932e-16)
(-3.16982 -11.3141 8.32973e-16)
(-2.60681 5.40824 3.01305e-15)
(-21.3858 -1.32014 -2.93641e-15)
(-30.6195 17.8587 0)
(-26.9133 -31.7992 6.12126e-16)