/*--------------------------------*- C++ -*----------------------------------*\
  =========                 |
  \\      /  F ield         | OpenFOAM: The Open Source CFD Toolbox
   \\    /   O peration     | Website:  https://openfoam.org
    \\  /    A nd           | Version:  7
     \\/     M anipulation  |
\*---------------------------------------------------------------------------*/
FoamFile
{
    version     2.0;
    format      ascii;
    class       volScalarField;
    location    "5";
    object      p;
}
// * * * * * * * * * * * * * * * * * * * * * * * * * * * * * * * * * * * * * //

dimensions      [0 2 -2 0 0 0 0];

internalField   nonuniform List<scalar> 
13182
(
-2.55971e-06
-4.93959e-07
-1.86097e-06
-2.6945e-06
-9.72759e-07
-2.42582e-06
-2.4429e-06
-2.62131e-06
-2.7277e-06
-1.2301e-06
-1.23273e-06
-1.48128e-06
-2.45504e-06
-2.43355e-06
-2.39605e-06
-2.49367e-06
-2.72363e-06
-2.77875e-06
-2.36801e-06
-2.38776e-06
-2.37705e-06
-2.57314e-06
-2.48274e-06
-2.16847e-06
-2.14484e-06
-2.1624e-06
-2.62147e-06
-2.15042e-06
-1.50846e-06
-2.78494e-06
-2.78477e-06
-2.7095e-06
-2.51022e-06
-1.22007e-06
-1.12067e-06
-2.39341e-06
-2.71006e-06
-1.60267e-06
-1.70238e-06
-2.60699e-06
-4.95828e-07
-5.64218e-07
-1.89732e-06
-2.58927e-07
-2.08162e-06
-9.03908e-07
-2.70064e-06
-1.75288e-06
-1.68138e-06
-2.67559e-06
-2.04694e-06
-2.07008e-06
-1.20099e-06
-2.62715e-06
-2.45532e-06
-2.19091e-06
-1.54644e-06
-2.66254e-06
-2.46285e-06
-2.75752e-06
-2.7097e-06
-2.67782e-06
-2.61903e-06
-2.22674e-06
-2.01948e-06
-2.0081e-06
-2.46076e-06
-2.12623e-06
-1.02087e-06
-2.25964e-06
-2.88833e-07
-2.57523e-06
-2.59601e-06
-2.14038e-06
-4.34458e-07
-2.72474e-06
-2.71078e-06
-2.67908e-06
-2.56574e-06
-2.56009e-06
-2.77741e-06
-1.20251e-06
-2.3651e-06
-2.38415e-06
-4.20363e-07
-4.30271e-07
-5.17722e-07
-1.30094e-06
-2.19444e-06
-2.23392e-06
-1.43413e-06
-2.73096e-06
-1.32603e-06
-1.31451e-06
-2.57186e-06
-2.66049e-06
-1.42486e-06
-2.53465e-06
-2.65088e-06
-2.38856e-06
-2.35725e-06
-1.58965e-06
-1.97881e-06
-2.44317e-06
-2.56886e-06
-2.02621e-06
-5.3431e-07
-5.03653e-07
-2.72305e-06
-1.6732e-06
-2.64534e-06
-7.49513e-07
-6.94487e-07
-2.44606e-06
-1.99371e-06
-1.31183e-06
-2.64256e-06
-4.05837e-07
-2.24632e-06
-2.23931e-06
-2.217e-06
-1.00353e-06
-2.7273e-06
-2.39312e-06
-1.8341e-06
-1.77375e-06
-2.39004e-06
-2.74858e-06
-2.40432e-06
-1.58414e-06
-1.47651e-07
-1.47205e-07
-2.64754e-06
-9.64882e-07
-2.44609e-06
-2.72423e-06
-2.70005e-06
-2.26388e-06
-2.40642e-06
-2.55977e-06
-1.36428e-06
-4.24829e-07
-4.9119e-07
-1.98498e-06
-1.95538e-06
-2.63512e-06
-2.539e-06
-9.10267e-07
-2.76301e-06
-1.65055e-06
-2.55065e-07
-2.03066e-06
-2.04171e-06
-1.59846e-06
-2.16587e-06
-2.14691e-06
-3.75006e-07
-8.05131e-07
-6.26496e-07
-2.12557e-06
-2.15006e-06
-1.5745e-06
-1.48396e-06
-2.61212e-06
-2.57353e-06
-1.88355e-06
-2.74527e-06
-2.25585e-06
-1.89052e-06
-8.84274e-07
-1.15183e-06
-2.47001e-06
-2.46599e-06
-1.82403e-07
-1.69651e-06
-2.60711e-06
-7.48331e-07
-1.41427e-06
-2.62945e-06
-2.39676e-06
-2.13862e-06
-1.62698e-06
-2.73387e-06
-2.3001e-06
-1.11524e-06
-1.6765e-06
-1.75256e-06
-2.59433e-06
-2.10522e-06
-2.01473e-06
-1.49654e-06
-2.73481e-06
-1.72619e-06
-4.09104e-07
-2.72528e-06
-1.89576e-06
-1.58681e-06
-2.34185e-06
-2.12124e-06
-2.21882e-06
-2.57938e-06
-2.58069e-06
-3.16992e-07
-2.6734e-06
-1.3244e-06
-3.86278e-07
-1.11078e-06
-1.20041e-07
-2.72302e-06
-1.24524e-06
-1.87874e-06
-1.00358e-07
-2.62477e-06
-2.45665e-06
-1.46025e-06
-2.28671e-06
-2.05504e-06
-2.72172e-06
-1.87155e-06
-2.64185e-07
-2.06555e-06
-2.11566e-06
-2.2378e-07
-2.41566e-06
-1.07911e-06
-2.71054e-06
-2.66462e-06
-2.77921e-06
-2.78075e-06
-2.57223e-06
-2.6754e-06
-2.5563e-06
-2.54625e-06
-2.44457e-06
-2.61293e-06
-2.62982e-06
-1.88245e-06
-2.62733e-06
-2.62398e-06
-2.5302e-06
-3.31012e-07
-3.52596e-07
-2.64063e-06
-2.48315e-06
-2.4968e-06
-2.41869e-06
-2.24384e-06
-2.23451e-06
-2.7118e-06
-2.25028e-06
-2.48409e-06
-1.29136e-06
-1.8306e-06
-1.85369e-06
-4.00562e-07
-2.72812e-06
-1.42548e-06
-2.37057e-07
-2.33166e-07
-7.71526e-07
-1.78121e-06
-2.734e-06
-2.72292e-06
-2.80126e-06
-2.25198e-06
-1.93838e-06
-1.35195e-06
-2.63277e-06
-2.21144e-06
-2.67839e-06
-2.66805e-06
-2.66341e-06
-2.61217e-06
-1.56273e-06
-2.73132e-06
-1.59113e-06
-2.63918e-06
-2.62638e-06
-2.27221e-06
-3.95435e-07
-2.77638e-06
-1.73021e-06
-1.70842e-06
-2.44366e-06
-2.52761e-06
-1.64483e-06
-1.67204e-06
-2.77699e-06
-1.03163e-06
-2.66041e-06
-2.6764e-06
-1.27895e-06
-9.20134e-07
-2.10591e-06
-2.69326e-06
-2.69443e-06
-2.71525e-06
-2.71488e-06
-2.75439e-06
-2.74998e-06
-1.9265e-06
-2.23133e-06
-2.56243e-06
-2.55512e-06
-1.13422e-06
-8.44768e-07
-2.27693e-06
-2.3379e-06
-2.69733e-06
-1.92781e-06
-2.51923e-06
-2.76159e-06
-1.7441e-06
-2.63182e-06
-2.73181e-06
-2.73457e-06
-2.73627e-06
-2.46672e-06
-2.78454e-06
-1.41253e-06
-1.33001e-06
-9.36014e-07
-2.60856e-06
-2.6143e-06
-2.45838e-06
-2.71689e-06
-2.03231e-06
-2.35819e-06
-2.03254e-06
-1.68305e-06
-2.36803e-06
-2.37829e-06
-1.44222e-06
-1.45077e-06
-1.46846e-06
-2.20452e-06
-2.2296e-06
-2.35745e-06
-2.7589e-06
-1.20598e-06
-3.32115e-07
-2.61522e-06
-2.7879e-06
-1.03929e-06
-1.07529e-06
-2.67232e-06
-2.20294e-06
-2.22791e-06
-2.44948e-06
-2.13841e-06
-2.1659e-06
-2.73868e-06
-8.79345e-07
-2.58243e-06
-2.57933e-06
-2.66251e-06
-2.54882e-06
-2.55704e-06
-2.72451e-06
-2.54637e-06
-1.332e-06
-2.74677e-06
-7.65116e-07
-2.57549e-06
-8.12894e-07
-9.37522e-07
-2.72738e-06
-2.55102e-06
-2.55907e-06
-1.83459e-06
-2.7145e-06
-2.58883e-06
-1.40086e-06
-1.80288e-06
-2.51655e-06
-2.69394e-06
-1.7248e-06
-1.15567e-06
-3.14615e-07
-2.37785e-06
-2.22666e-06
-1.396e-06
-2.72925e-06
-2.4485e-06
-2.01888e-06
-2.06015e-06
-1.89597e-06
-2.6223e-06
-9.89035e-07
-2.37774e-06
-2.14545e-06
-2.76397e-06
-2.76597e-06
-2.36979e-06
-2.35751e-06
-2.65354e-06
-2.71203e-06
-1.30541e-06
-1.85752e-06
-2.63135e-06
-1.3669e-06
-1.28925e-06
-2.28073e-06
-2.71886e-06
-2.64353e-06
-1.54191e-06
-2.16011e-06
-2.73451e-06
-2.69802e-06
-1.97567e-06
-2.37632e-06
-2.38568e-06
-1.39054e-06
-1.9965e-06
-2.78958e-06
-9.24943e-07
-2.67043e-06
-1.16751e-06
-1.85688e-06
-2.49694e-06
-1.886e-06
-2.56405e-06
-2.73387e-06
-2.73801e-06
-2.78566e-06
-1.15912e-06
-2.64306e-06
-2.05368e-06
-2.51881e-06
-2.56435e-06
-3.43568e-07
-2.16364e-06
-2.27274e-06
-2.68439e-06
-2.56229e-06
-1.0613e-06
-2.47725e-06
-1.76933e-06
-1.2238e-06
-2.46258e-06
-6.18702e-07
-1.77843e-06
-1.87425e-06
-2.33104e-06
-2.04104e-06
-2.69285e-06
-6.79589e-07
-2.69819e-06
-1.3397e-06
-2.77247e-06
-2.65595e-06
-1.58081e-06
-1.55809e-06
-2.66519e-06
-7.37783e-07
-2.19514e-06
-2.7995e-06
-2.73005e-06
-2.73576e-06
-2.64959e-06
-2.72948e-06
-2.55257e-06
-8.20211e-07
-2.61647e-06
-2.66006e-06
-2.7754e-06
-1.81745e-06
-1.81348e-06
-2.72063e-06
-2.54452e-06
-2.54646e-06
-8.81567e-07
-2.75837e-06
-2.13143e-06
-8.82768e-07
-1.74831e-06
-2.76503e-06
-1.43501e-06
-2.76508e-06
-2.69838e-06
-2.69082e-06
-2.72764e-06
-1.95153e-06
-2.64949e-06
-4.19145e-07
-1.42189e-06
-2.32793e-06
-1.44496e-06
-9.94491e-07
-5.07219e-07
-2.68162e-06
-1.99821e-06
-2.69311e-06
-7.74629e-07
-2.80238e-06
-1.65495e-06
-2.13321e-06
-4.49561e-07
-2.47226e-06
-1.19967e-06
-2.69853e-06
-2.62968e-06
-2.70134e-06
-9.04276e-07
-1.4081e-06
-2.43154e-06
-2.66401e-06
-2.65891e-06
-1.84804e-06
-1.62585e-06
-1.66397e-06
-1.65655e-06
-2.48351e-06
-2.23594e-06
-2.10119e-06
-2.50445e-06
-1.73041e-06
-2.67754e-06
-2.38942e-06
-7.21198e-07
-2.4339e-06
-2.56777e-06
-2.57236e-06
-1.67922e-06
-1.91775e-06
-1.95272e-06
-2.66727e-06
-2.12953e-06
-2.77298e-06
-2.11678e-06
-2.12668e-06
-2.62313e-06
-2.49011e-06
-2.50085e-06
-2.49152e-07
-2.42034e-06
-2.40691e-06
-1.50777e-06
-2.16799e-06
-2.08459e-06
-2.34805e-06
-1.39449e-06
-2.77654e-06
-1.65119e-06
-2.50005e-06
-2.0055e-06
-1.97383e-06
-2.56958e-06
-1.5806e-06
-2.74247e-06
-2.77105e-06
-2.54242e-06
-2.54902e-06
-2.5519e-06
-2.54033e-06
-2.68599e-06
-2.78286e-06
-2.63665e-06
-2.20447e-06
-2.63095e-06
-9.65093e-07
-2.75127e-06
-2.58026e-06
-2.09421e-06
-2.66083e-06
-2.56409e-06
-2.10447e-06
-6.91575e-07
-1.6272e-06
-2.36932e-06
-2.33503e-06
-1.37242e-06
-1.33531e-06
-2.15486e-06
-2.70186e-06
-2.59929e-06
-2.56335e-06
-2.45835e-06
-2.61493e-06
-1.75416e-06
-2.33887e-06
-1.21295e-06
-2.70987e-06
-2.51906e-06
-2.49223e-06
-2.36199e-06
-2.71845e-06
-2.58978e-06
-2.59975e-06
-1.7826e-06
-1.78427e-06
-5.24776e-07
-2.57292e-06
-2.34398e-06
-2.49476e-06
-1.46194e-06
-1.91641e-06
-2.70989e-06
-2.79758e-06
-2.78754e-06
-2.62654e-06
-2.57891e-06
-2.56305e-06
-2.55479e-06
-1.1991e-06
-2.09268e-06
-1.19143e-06
-2.01652e-06
-2.72324e-06
-2.72109e-06
-2.76634e-06
-1.32337e-06
-2.61552e-06
-1.13011e-06
-1.82324e-06
-6.55118e-07
-1.52183e-06
-2.19225e-06
-1.21027e-06
-2.07453e-06
-2.69223e-06
-1.42334e-06
-2.55316e-06
-2.7254e-06
-1.1465e-06
-1.24945e-06
-2.77706e-06
-2.45849e-06
-1.17009e-06
-2.65629e-06
-2.77992e-06
-2.78198e-06
-2.27466e-06
-2.20664e-06
-1.13364e-06
-1.45741e-06
-2.65208e-06
-2.55671e-06
-2.66554e-06
-2.44736e-06
-2.65492e-06
-1.49554e-06
-2.15177e-06
-2.57976e-06
-2.71128e-06
-9.71724e-07
-1.41524e-06
-2.65758e-06
-1.70135e-06
-1.0582e-06
-2.68068e-06
-2.67559e-06
-1.592e-06
-2.71741e-06
-2.69429e-06
-1.37143e-06
-2.77684e-06
-1.83441e-06
-1.21972e-06
-1.36138e-06
-2.74017e-06
-1.73958e-06
-1.26082e-06
-2.34918e-06
-2.39099e-06
-2.37317e-06
-2.5529e-06
-2.5576e-06
-2.72816e-06
-2.01306e-06
-2.80304e-06
-2.50167e-06
-2.73363e-06
-2.34799e-06
-2.65219e-06
-8.9456e-07
-2.77798e-06
-2.59035e-06
-1.26375e-06
-2.68462e-06
-2.0317e-06
-2.7011e-06
-2.70027e-06
-1.48817e-06
-2.72215e-06
-1.39608e-06
-1.42796e-06
-1.33051e-06
-1.32969e-06
-2.71352e-06
-2.45223e-06
-2.46651e-06
-6.80053e-07
-1.5015e-06
-2.71151e-06
-2.71232e-06
-2.54638e-06
-2.39566e-06
-2.1427e-06
-1.14205e-06
-2.7022e-06
-2.70962e-06
-2.61661e-06
-2.57445e-06
-8.57149e-07
-2.01561e-06
-2.66855e-06
-2.64981e-06
-5.80824e-07
-2.09903e-06
-2.60694e-06
-2.69245e-06
-2.58124e-06
-2.57013e-06
-1.26691e-06
-1.41175e-06
-2.69633e-06
-2.70195e-06
-2.64533e-06
-3.14123e-07
-7.59481e-07
-1.54593e-06
-2.66532e-06
-2.37021e-06
-2.78502e-06
-2.79783e-06
-8.55604e-07
-7.13255e-07
-1.76502e-06
-2.80418e-06
-2.42624e-06
-2.31082e-06
-2.19232e-06
-2.53755e-06
-2.35781e-06
-1.65885e-06
-2.60576e-06
-2.69007e-06
-2.34294e-06
-2.03893e-06
-2.05596e-06
-2.68769e-06
-2.0882e-06
-2.08996e-06
-2.78593e-06
-1.33421e-06
-2.22045e-06
-2.3129e-06
-2.43147e-06
-2.12692e-06
-2.70158e-06
-1.33278e-06
-2.34941e-06
-2.5653e-06
-8.85435e-07
-2.7109e-06
-2.06659e-06
-2.33717e-06
-2.71592e-06
-1.04558e-06
-2.6068e-06
-2.6996e-06
-9.34156e-07
-1.78339e-06
-2.72318e-06
-2.74949e-06
-2.22727e-06
-2.41359e-06
-1.52601e-06
-2.67243e-06
-4.536e-07
-3.77622e-07
-2.66401e-06
-2.41712e-06
-2.72486e-06
-2.71735e-06
-1.30803e-06
-2.14514e-06
-2.64552e-06
-2.72064e-06
-2.12297e-06
-1.64096e-06
-2.75428e-06
-2.16118e-06
-2.72893e-07
-2.32027e-07
-2.75278e-06
-2.37789e-06
-2.393e-06
-1.79259e-06
-1.96141e-06
-7.5846e-07
-2.5694e-06
-1.30966e-06
-2.19691e-06
-1.16542e-06
-2.60447e-06
-2.5365e-06
-2.66565e-06
-1.325e-06
-1.55886e-06
-2.04744e-06
-1.44985e-06
-2.6359e-06
-7.45236e-07
-2.70937e-06
-2.04133e-06
-2.69005e-06
-2.57511e-06
-2.3115e-06
-2.18197e-06
-3.47209e-07
-1.28692e-06
-1.37792e-06
-1.57224e-06
-7.43187e-07
-1.62131e-06
-2.71179e-06
-2.6505e-06
-2.11539e-06
-2.12208e-06
-2.78112e-06
-1.84481e-06
-2.29372e-06
-2.27531e-06
-2.6795e-06
-1.21719e-06
-1.11196e-06
-2.44301e-06
-2.34917e-06
-2.6443e-06
-2.40361e-06
-2.61474e-06
-2.62333e-06
-2.2272e-06
-2.31582e-06
-8.74021e-07
-8.92146e-07
-1.62477e-06
-2.17009e-06
-2.75658e-06
-1.55669e-06
-2.2957e-06
-2.67461e-06
-2.45271e-06
-2.27048e-06
-2.27494e-06
-1.46253e-06
-2.29799e-06
-1.89993e-06
-2.69532e-06
-2.57622e-06
-2.38033e-06
-2.74803e-06
-2.44671e-06
-1.88512e-06
-1.40747e-07
-2.79768e-06
-2.64979e-06
-4.52357e-07
-2.40299e-06
-1.02542e-06
-2.77968e-06
-7.65937e-07
-1.92591e-06
-2.66998e-06
-4.93369e-07
-2.33776e-06
-2.55129e-06
-2.70337e-06
-2.72948e-06
-2.72789e-06
-2.07877e-06
-2.73669e-06
-1.98623e-06
-2.61766e-06
-2.57712e-06
-3.92531e-07
-2.7147e-06
-1.95513e-06
-2.60793e-06
-2.71495e-06
-9.1382e-07
-1.54744e-06
-2.2193e-06
-2.57277e-06
-2.71967e-06
-2.71506e-06
-2.15749e-06
-2.14332e-06
-2.50207e-06
-2.93752e-07
-2.59911e-06
-2.67973e-06
-1.59047e-06
-2.65917e-06
-1.45797e-06
-2.07858e-06
-1.83241e-07
-2.57377e-06
-1.08174e-06
-2.41756e-06
-1.5514e-06
-2.78366e-06
-2.64692e-06
-2.57412e-06
-1.58223e-06
-1.63922e-06
-2.54254e-06
-7.32928e-07
-1.13848e-06
-1.02807e-06
-1.01111e-06
-1.84808e-06
-2.51743e-06
-1.82731e-06
-1.66733e-06
-1.70787e-06
-1.31444e-06
-2.59238e-06
-2.59039e-06
-1.61355e-06
-2.56283e-06
-2.74419e-06
-3.12038e-07
-2.71821e-06
-2.44501e-06
-2.4006e-06
-2.4713e-06
-2.62903e-06
-2.6653e-06
-2.58046e-06
-2.5823e-06
-1.59003e-06
-2.61016e-06
-2.45813e-06
-2.5542e-06
-2.3208e-06
-2.29547e-06
-2.32353e-06
-1.17237e-06
-2.10906e-06
-2.11945e-06
-2.6721e-06
-1.15355e-06
-1.82363e-06
-2.1179e-06
-1.43741e-06
-1.38495e-06
-2.034e-06
-8.99284e-07
-2.58868e-06
-1.73436e-06
-2.36601e-06
-2.35497e-06
-1.6508e-06
-2.43365e-06
-1.10995e-06
-2.03602e-06
-2.7007e-06
-1.13146e-06
-2.75395e-06
-1.50283e-06
-1.41506e-06
-1.99271e-06
-2.78765e-06
-2.05636e-06
-2.69719e-06
-2.68808e-06
-2.39366e-06
-2.06206e-06
-2.5642e-06
-2.7053e-06
-2.37045e-06
-3.13961e-07
-1.15302e-06
-2.34982e-06
-2.61983e-06
-2.54048e-06
-2.52241e-06
-2.43924e-06
-9.83969e-07
-2.65432e-06
-2.15356e-06
-2.66835e-06
-1.50632e-06
-2.71292e-06
-2.07214e-06
-2.30139e-06
-2.31264e-06
-2.34401e-06
-2.3994e-06
-2.3836e-06
-2.37286e-06
-2.45363e-06
-8.21308e-07
-2.43107e-06
-2.12389e-07
-2.68844e-06
-2.6881e-06
-2.68535e-06
-2.19921e-06
-2.4517e-06
-2.12786e-06
-2.77096e-06
-2.54998e-06
-2.52744e-06
-2.39612e-06
-7.1663e-07
-2.66277e-06
-1.11049e-06
-2.64189e-06
-2.78679e-06
-2.27349e-06
-2.27762e-06
-1.67565e-06
-1.73595e-07
-2.3241e-06
-1.2533e-06
-2.67033e-06
-2.69897e-06
-2.70496e-06
-2.69731e-06
-2.21578e-06
-2.22074e-06
-2.78414e-06
-2.71133e-06
-2.56354e-06
-2.80407e-06
-2.65043e-06
-2.73385e-06
-1.83557e-06
-1.90478e-06
-2.45013e-07
-1.70293e-06
-7.1142e-07
-2.5669e-06
-7.91844e-07
-2.68972e-06
-1.60625e-06
-2.72621e-06
-2.7342e-06
-2.69044e-06
-2.56976e-06
-9.47967e-07
-2.28159e-06
-2.13714e-06
-2.62797e-06
-1.91823e-06
-2.62859e-06
-1.59548e-06
-1.71015e-06
-2.11063e-06
-4.55271e-07
-2.70067e-06
-9.26007e-07
-9.21116e-07
-2.22601e-06
-2.74759e-06
-2.69148e-06
-1.4475e-06
-2.02419e-06
-2.45761e-06
-1.92954e-06
-2.2408e-06
-1.06161e-06
-6.16204e-07
-2.71809e-06
-1.9538e-06
-2.20775e-06
-1.69325e-06
-1.61471e-06
-1.59177e-06
-2.26251e-06
-2.79241e-06
-2.75651e-06
-2.26668e-06
-1.14142e-06
-1.48471e-06
-2.57621e-06
-2.71958e-06
-2.7187e-06
-7.99808e-07
-8.21858e-07
-2.71929e-06
-2.71453e-06
-2.73194e-06
-1.95096e-06
-2.00553e-06
-2.27469e-06
-7.7385e-07
-1.505e-06
-2.60712e-06
-1.49937e-06
-1.50016e-06
-2.60373e-06
-2.34468e-06
-2.08818e-06
-2.09047e-06
-2.56078e-06
-2.35855e-06
-2.46158e-06
-6.58633e-07
-1.36554e-06
-1.75485e-06
-1.73111e-06
-2.62086e-06
-1.62941e-06
-2.69695e-06
-2.12383e-06
-2.05938e-06
-2.44061e-06
-3.91664e-07
-2.28002e-06
-1.20411e-06
-2.37815e-06
-2.5774e-06
-2.5675e-07
-2.22013e-07
-2.64436e-06
-6.99007e-07
-2.7143e-06
-4.40494e-07
-2.26925e-06
-2.488e-06
-2.74274e-06
-2.68719e-06
-1.79315e-06
-2.44547e-06
-1.66005e-06
-2.5475e-06
-2.47166e-06
-2.4901e-06
-1.75675e-06
-1.71696e-06
-2.74796e-06
-5.79753e-07
-1.20978e-06
-2.74847e-06
-2.7837e-06
-2.75994e-06
-2.61331e-06
-2.66373e-07
-1.68723e-06
-1.70617e-06
-7.72338e-07
-2.55516e-06
-2.14029e-06
-2.32456e-06
-2.4201e-06
-9.93888e-07
-2.41258e-06
-1.50431e-06
-1.57426e-06
-2.77229e-06
-1.41588e-06
-2.52759e-06
-2.27896e-06
-1.468e-06
-1.32542e-06
-2.67913e-06
-1.05246e-06
-7.556e-07
-2.69359e-06
-2.14675e-06
-2.62372e-06
-2.53477e-06
-3.53688e-07
-2.02823e-06
-1.69299e-06
-2.63548e-06
-2.56422e-06
-2.58193e-06
-2.55111e-06
-2.70379e-06
-1.62191e-06
-2.56503e-06
-1.35133e-06
-2.08561e-06
-2.54368e-06
-2.32095e-06
-1.5799e-06
-1.55006e-07
-2.29043e-06
-2.68115e-06
-2.80689e-06
-2.23999e-06
-2.25087e-06
-7.27739e-07
-2.57113e-06
-2.24239e-06
-1.60369e-06
-2.06268e-06
-1.23191e-06
-2.4526e-06
-2.56417e-06
-2.56529e-06
-2.29129e-06
-2.0352e-06
-2.63778e-06
-2.57363e-06
-1.58657e-06
-1.54525e-06
-1.11251e-06
-7.66852e-07
-2.15151e-06
-2.55693e-06
-2.44411e-06
-1.67417e-06
-2.21723e-06
-2.56565e-06
-1.46716e-06
-2.68802e-06
-1.34975e-06
-4.4766e-07
-1.47347e-06
-2.66848e-06
-1.33769e-06
-2.45034e-06
-2.18014e-06
-1.93548e-06
-2.39734e-06
-2.18706e-06
-2.17327e-06
-1.98095e-06
-1.9606e-06
-2.20858e-06
-3.85608e-07
-2.68104e-06
-2.66238e-06
-1.15177e-06
-2.73015e-06
-1.10473e-06
-1.36454e-06
-1.81118e-06
-2.79617e-06
-2.57886e-06
-7.67305e-07
-6.3999e-07
-2.07935e-06
-2.51249e-06
-2.55013e-06
-2.38081e-06
-1.75495e-06
-9.41629e-07
-2.7537e-06
-2.75102e-06
-2.13358e-07
-2.15817e-06
-8.75076e-07
-2.20933e-06
-2.66174e-06
-2.65255e-06
-2.58112e-06
-2.47233e-06
-2.65204e-06
-1.76397e-06
-2.4926e-06
-2.33896e-06
-2.34177e-06
-1.24481e-06
-2.03777e-06
-2.34497e-06
-2.68478e-06
-1.74853e-06
-2.05234e-06
-2.05786e-06
-1.68895e-06
-1.75172e-06
-1.73785e-06
-1.38693e-06
-2.6524e-06
-2.69062e-06
-2.3221e-06
-2.24534e-06
-2.12505e-06
-2.11249e-06
-1.73463e-06
-1.93238e-06
-2.68253e-06
-2.66623e-06
-2.45858e-06
-2.31942e-06
-2.3413e-06
-1.73173e-06
-2.76104e-06
-2.75894e-06
-2.67093e-06
-1.70901e-06
-2.26948e-06
-2.30251e-06
-2.29832e-06
-2.31624e-06
-7.3133e-07
-2.62985e-06
-2.70266e-06
-5.60438e-07
-4.97169e-07
-2.3779e-06
-2.72065e-06
-2.71501e-06
-1.67834e-06
-2.67908e-06
-2.38449e-06
-9.48011e-07
-2.34081e-06
-2.40436e-06
-2.74372e-06
-2.74122e-06
-2.72888e-06
-2.70059e-06
-1.62252e-06
-2.63059e-06
-1.54561e-06
-1.56241e-06
-2.46652e-06
-2.04706e-06
-2.6324e-06
-1.71271e-06
-2.34925e-06
-2.28755e-06
-7.09962e-07
-9.12456e-07
-1.65107e-06
-4.81824e-07
-2.22403e-06
-4.43652e-07
-2.30955e-06
-2.63904e-06
-8.71034e-07
-1.94896e-06
-1.9425e-06
-2.72843e-06
-1.78996e-06
-2.53876e-06
-2.70553e-06
-3.21373e-07
-2.66348e-06
-2.7199e-06
-2.76639e-06
-2.50927e-06
-2.50241e-06
-1.85948e-06
-2.60463e-06
-2.78581e-06
-1.85986e-06
-2.68065e-06
-2.67859e-06
-1.55069e-06
-1.58843e-06
-2.69076e-06
-1.71963e-06
-2.76301e-06
-2.72351e-06
-2.71105e-06
-2.71828e-06
-7.73535e-07
-2.7198e-06
-2.66259e-06
-4.75526e-07
-8.33525e-07
-1.9917e-06
-2.62778e-06
-2.05827e-06
-2.46817e-06
-2.34414e-06
-2.11716e-06
-2.45355e-06
-2.41623e-06
-2.67187e-06
-2.67176e-06
-2.45403e-06
-2.6868e-06
-2.79607e-06
-2.75889e-06
-1.60761e-06
-2.71594e-06
-2.70547e-06
-2.70644e-06
-1.86984e-06
-1.90644e-06
-2.70522e-06
-2.23753e-06
-2.71958e-06
-2.64986e-06
-2.39425e-06
-2.80131e-06
-1.2135e-06
-1.85174e-06
-2.63088e-06
-2.36658e-06
-2.38401e-06
-1.49522e-06
-2.09703e-06
-2.2903e-06
-2.65591e-06
-1.25721e-06
-2.41971e-06
-2.72842e-06
-2.76424e-06
-2.76605e-06
-2.57426e-06
-2.77559e-06
-2.69089e-06
-1.4706e-06
-2.71385e-06
-2.57671e-06
-2.64344e-06
-2.08572e-06
-2.78139e-06
-1.82615e-06
-1.51922e-06
-2.67583e-06
-2.67273e-06
-2.42313e-06
-3.5579e-07
-2.39366e-06
-1.7979e-06
-2.06447e-06
-2.21188e-06
-2.22214e-06
-2.22094e-06
-1.70275e-06
-2.28984e-06
-2.77279e-06
-2.72065e-06
-2.05062e-06
-2.472e-06
-1.91119e-06
-1.84104e-06
-2.63878e-06
-2.15563e-06
-2.12762e-06
-2.05408e-06
-1.78411e-06
-2.58155e-06
-2.32572e-06
-2.57438e-06
-2.78541e-06
-2.01188e-06
-2.71863e-06
-2.71934e-06
-2.71826e-06
-6.15357e-07
-2.07013e-06
-2.06297e-06
-3.65756e-07
-1.79439e-06
-1.39548e-06
-2.54531e-06
-2.61976e-06
-2.67543e-06
-2.20945e-06
-1.08789e-06
-1.12032e-06
-2.66282e-06
-2.1818e-06
-2.7375e-06
-1.13522e-06
-2.74936e-06
-2.74842e-06
-2.68071e-06
-2.4449e-06
-1.75374e-06
-4.89259e-07
-9.96241e-07
-1.9537e-06
-2.00602e-06
-2.59953e-06
-7.10768e-07
-7.32469e-07
-9.02014e-07
-2.7075e-06
-2.71072e-06
-2.55804e-06
-2.28469e-06
-1.86722e-06
-1.98922e-06
-1.76826e-06
-1.49302e-06
-1.94673e-06
-1.23488e-06
-2.38578e-06
-2.6085e-06
-2.47703e-06
-2.46936e-06
-2.71818e-06
-1.26373e-06
-1.90168e-06
-2.56401e-06
-1.61572e-06
-1.49279e-06
-1.65749e-06
-9.11076e-07
-2.44123e-06
-2.45983e-06
-2.65995e-06
-1.63533e-06
-2.03215e-06
-2.73254e-06
-2.73241e-06
-1.93194e-06
-1.9023e-06
-8.29407e-07
-2.61198e-06
-1.7279e-06
-4.24945e-07
-2.41138e-06
-1.57885e-06
-9.55634e-07
-4.08251e-07
-2.52195e-06
-2.52363e-06
-1.12138e-06
-2.72058e-06
-3.70541e-07
-2.76458e-06
-2.60817e-06
-1.49764e-06
-2.60947e-06
-2.60521e-06
-2.21319e-06
-2.69311e-06
-1.21795e-06
-1.46243e-06
-2.22749e-06
-2.08838e-06
-2.76566e-06
-2.72324e-06
-2.28125e-06
-7.93831e-07
-9.85556e-07
-2.73973e-06
-2.74087e-06
-2.73595e-06
-2.80665e-06
-1.47824e-06
-2.57618e-06
-1.41358e-06
-1.40295e-06
-2.54977e-06
-2.68587e-06
-2.6884e-06
-2.73861e-06
-1.07449e-06
-1.24901e-06
-4.88903e-07
-2.07614e-06
-2.07103e-06
-2.29517e-06
-2.41659e-06
-2.25464e-06
-2.80169e-06
-9.59925e-07
-2.61429e-06
-2.24503e-06
-2.79461e-06
-7.89488e-07
-2.56296e-06
-1.7694e-06
-1.28847e-06
-1.41613e-06
-6.47913e-07
-2.34869e-06
-2.40254e-06
-8.23134e-07
-9.10255e-07
-5.11903e-07
-7.62278e-07
-2.57419e-06
-1.52437e-06
-1.22139e-06
-1.27729e-06
-2.64017e-06
-7.52998e-07
-2.40432e-06
-2.7674e-06
-2.59594e-07
-2.62624e-06
-1.97072e-06
-8.62975e-07
-2.1609e-06
-1.64661e-06
-2.3235e-06
-2.19673e-06
-9.43907e-07
-2.68639e-06
-2.59698e-06
-2.64444e-06
-2.55672e-06
-2.74113e-06
-2.80558e-06
-7.30233e-07
-2.26006e-06
-2.64441e-06
-1.60439e-06
-1.45142e-06
-2.6415e-06
-2.664e-06
-2.46717e-06
-1.92902e-06
-2.60061e-06
-2.69201e-06
-2.68989e-06
-2.75152e-06
-2.61273e-06
-9.52851e-07
-1.01645e-06
-2.21223e-06
-2.6209e-06
-2.67278e-06
-2.67496e-06
-2.71581e-06
-2.70654e-06
-2.22244e-06
-2.72464e-06
-2.3943e-06
-2.4007e-06
-2.42875e-06
-2.55062e-06
-7.42246e-07
-2.78828e-06
-2.60538e-06
-9.05827e-07
-2.66831e-06
-1.57159e-06
-2.62389e-06
-1.20557e-06
-2.71095e-06
-2.76973e-06
-2.64185e-06
-1.47184e-06
-1.39347e-06
-2.72313e-06
-2.77433e-06
-2.61667e-06
-2.66461e-06
-4.95317e-07
-1.52892e-06
-2.47926e-06
-2.40789e-06
-2.31963e-06
-2.28728e-06
-2.63846e-06
-2.7919e-06
-2.39707e-06
-2.7181e-06
-2.31249e-06
-2.76355e-06
-2.43119e-06
-2.42821e-06
-2.6158e-06
-2.15773e-06
-2.5257e-06
-2.058e-06
-2.5679e-06
-5.1752e-07
-1.34904e-06
-2.63692e-06
-9.97609e-07
-1.95e-06
-1.79011e-06
-5.5246e-07
-2.5638e-06
-2.21286e-06
-2.72422e-06
-2.59462e-06
-1.68558e-06
-1.85458e-07
-2.52557e-06
-2.64664e-06
-1.62478e-06
-9.81536e-07
-1.42107e-06
-1.39692e-06
-1.4958e-06
-2.01039e-06
-2.5776e-06
-2.66821e-06
-2.19862e-06
-1.67167e-06
-2.50312e-06
-2.72154e-06
-2.60275e-06
-2.35425e-06
-2.59655e-06
-2.28295e-06
-2.42289e-07
-2.57639e-06
-1.89183e-06
-1.844e-06
-1.19468e-06
-1.68562e-06
-2.80421e-06
-2.80532e-06
-2.38309e-06
-3.97186e-07
-1.69142e-06
-2.70607e-06
-8.46927e-07
-2.61436e-06
-2.71377e-06
-1.14064e-06
-1.20481e-06
-4.90903e-07
-1.43386e-06
-2.78217e-06
-2.70714e-06
-2.33477e-06
-2.75847e-06
-2.56477e-06
-2.19622e-06
-2.78368e-06
-2.66884e-06
-2.42315e-06
-2.70655e-06
-1.39535e-06
-2.7166e-06
-1.01843e-06
-1.04522e-06
-1.54075e-06
-2.26659e-06
-2.72604e-06
-2.5441e-06
-2.46596e-06
-6.85575e-07
-2.76813e-06
-2.70684e-06
-2.11056e-06
-2.13045e-06
-1.93478e-06
-1.87051e-06
-2.44321e-06
-2.4602e-06
-2.28768e-06
-2.74043e-06
-9.9643e-07
-2.56775e-06
-4.1215e-07
-2.18697e-06
-2.5142e-06
-8.43875e-07
-2.71438e-06
-2.70644e-06
-2.65307e-06
-2.7217e-06
-2.72275e-06
-2.71019e-06
-2.49171e-06
-2.80681e-06
-2.3823e-06
-2.14484e-06
-2.77251e-06
-2.35593e-06
-2.62913e-06
-1.37662e-06
-1.52723e-06
-1.64585e-06
-2.38255e-06
-2.79592e-06
-2.79744e-06
-1.60056e-06
-2.1665e-06
-2.69324e-06
-2.40567e-06
-2.57929e-06
-7.14789e-07
-1.19742e-06
-1.26444e-06
-1.2558e-06
-2.8005e-06
-2.30979e-06
-2.36347e-06
-1.94361e-06
-2.56764e-06
-2.62763e-06
-2.7333e-06
-2.72104e-06
-8.27255e-07
-7.92139e-07
-1.59869e-06
-1.42732e-06
-2.73372e-06
-2.65259e-06
-2.29589e-06
-3.39056e-07
-2.69967e-06
-1.24704e-06
-1.92428e-06
-1.66433e-07
-1.88347e-06
-1.82708e-06
-2.39447e-06
-9.62909e-07
-2.47908e-06
-2.47151e-06
-2.48075e-06
-2.36517e-06
-2.17808e-06
-2.61874e-06
-2.70167e-06
-1.48347e-06
-2.75468e-06
-2.77639e-06
-1.274e-06
-2.61075e-06
-1.44179e-06
-2.32245e-06
-2.30793e-06
-2.64566e-06
-2.65287e-06
-1.96511e-06
-2.52576e-06
-2.55168e-06
-2.56243e-06
-1.28922e-06
-1.73549e-06
-1.78079e-06
-2.59732e-06
-6.39739e-07
-2.54166e-06
-1.6334e-06
-1.65169e-06
-2.52318e-06
-2.36946e-06
-2.66917e-06
-2.95489e-07
-2.61946e-06
-2.61111e-06
-2.16444e-06
-7.81057e-07
-2.73763e-06
-2.65224e-06
-2.20635e-06
-2.77104e-06
-2.20947e-06
-2.62216e-06
-2.07236e-06
-2.6579e-06
-1.47267e-06
-1.25028e-06
-1.28607e-06
-2.67912e-06
-1.57077e-06
-2.51034e-06
-2.30529e-06
-2.49261e-06
-1.58536e-06
-1.914e-06
-2.27943e-06
-2.7145e-06
-2.71555e-06
-2.58204e-06
-2.33594e-06
-2.47892e-06
-1.01551e-06
-2.74536e-06
-2.05098e-06
-2.04569e-06
-1.33179e-06
-2.67863e-06
-1.69959e-06
-1.00653e-06
-2.27062e-06
-2.68214e-06
-2.68459e-06
-2.5515e-06
-2.72232e-06
-2.78227e-06
-2.20956e-06
-1.1189e-06
-2.43766e-06
-4.05609e-07
-1.18396e-06
-2.19431e-06
-2.19239e-06
-2.6895e-07
-2.78459e-06
-1.22346e-06
-5.39571e-07
-2.70927e-06
-1.46306e-06
-2.63145e-06
-9.01352e-07
-1.93469e-06
-2.69253e-06
-2.73644e-06
-2.79091e-06
-2.7185e-06
-2.28523e-06
-2.7116e-06
-2.64026e-06
-2.62626e-06
-2.70017e-06
-2.74161e-06
-1.64048e-06
-2.18257e-06
-1.04749e-06
-2.43868e-06
-1.45861e-06
-1.05021e-06
-1.78539e-06
-1.4884e-06
-2.71292e-06
-2.15896e-06
-2.18611e-06
-8.72494e-07
-2.32006e-06
-2.75733e-06
-2.22123e-06
-1.74229e-07
-2.13795e-07
-2.75616e-06
-2.35446e-06
-2.83256e-07
-1.79211e-06
-2.68563e-06
-2.62334e-06
-1.09318e-06
-2.43902e-06
-2.71418e-06
-2.7117e-06
-1.02883e-06
-1.14736e-06
-4.28415e-07
-2.32929e-06
-2.33131e-06
-2.68013e-06
-2.18338e-06
-2.18445e-06
-2.21845e-07
-8.0337e-07
-1.8747e-06
-1.32962e-07
-2.30318e-06
-2.72191e-06
-7.97356e-07
-9.52478e-07
-3.90649e-07
-2.719e-06
-2.67095e-06
-2.67627e-06
-2.75788e-06
-2.75441e-06
-2.56098e-06
-1.4541e-06
-1.46205e-06
-2.70968e-06
-2.71061e-06
-2.68982e-06
-2.71375e-06
-2.8021e-06
-2.61083e-06
-2.59979e-06
-2.17786e-06
-8.10508e-07
-1.93913e-06
-2.06163e-06
-1.28357e-06
-2.31737e-06
-2.69934e-06
-2.68103e-06
-1.59763e-06
-2.22719e-06
-2.71687e-06
-2.78499e-06
-2.80659e-06
-8.00116e-07
-1.72043e-06
-2.40227e-06
-1.27707e-06
-2.69307e-06
-2.71518e-06
-2.14978e-06
-2.15371e-06
-1.67309e-06
-2.30413e-06
-2.48874e-06
-1.60745e-06
-2.70411e-06
-2.56857e-06
-2.54547e-06
-2.53062e-06
-2.51324e-06
-4.6587e-07
-1.59966e-06
-1.66408e-06
-2.51937e-06
-2.73926e-06
-2.17876e-06
-6.73094e-07
-5.23695e-07
-5.60972e-07
-1.54515e-06
-1.17206e-06
-2.63953e-06
-2.67961e-06
-2.47443e-06
-6.36964e-07
-2.46557e-06
-2.76853e-06
-2.71922e-06
-2.31336e-06
-2.7497e-06
-2.79757e-06
-2.79992e-06
-2.34879e-06
-2.65468e-06
-2.56896e-06
-7.23617e-07
-2.66254e-06
-2.64246e-06
-1.59378e-06
-1.76955e-06
-2.29165e-06
-2.47516e-06
-2.47058e-06
-2.63027e-06
-2.18934e-06
-2.64564e-06
-8.81761e-07
-1.70746e-06
-1.73429e-06
-2.01896e-06
-2.02946e-06
-1.93321e-06
-1.88801e-06
-1.58988e-06
-2.14772e-06
-7.48627e-07
-8.27536e-07
-2.76901e-06
-2.75694e-06
-2.76041e-06
-2.74663e-06
-3.00418e-07
-2.61057e-07
-2.53462e-06
-2.48241e-06
-2.04604e-06
-1.38647e-06
-1.18928e-06
-2.52357e-06
-2.13214e-06
-2.40432e-06
-2.57496e-06
-1.37369e-07
-1.00516e-06
-2.0221e-06
-2.42148e-06
-2.42804e-06
-2.08957e-06
-2.72113e-06
-2.75876e-06
-1.3249e-07
-1.4505e-07
-2.72315e-06
-9.60347e-07
-2.62839e-06
-1.6633e-06
-1.2536e-06
-2.1872e-06
-2.58845e-06
-2.4478e-06
-1.48186e-06
-1.45706e-06
-2.69849e-06
-2.37777e-06
-2.59327e-06
-7.39756e-07
-2.75109e-06
-1.5023e-06
-1.52673e-06
-2.63571e-06
-2.00146e-06
-2.58774e-06
-2.43742e-06
-2.43158e-06
-1.16034e-06
-1.6578e-06
-7.84787e-07
-3.52693e-07
-3.61205e-07
-3.40091e-07
-2.72985e-06
-2.7304e-06
-2.34703e-06
-2.4003e-06
-2.64209e-06
-2.68572e-06
-2.69139e-06
-2.25457e-06
-1.9047e-06
-3.68367e-07
-2.748e-06
-2.66777e-06
-2.09943e-06
-2.26235e-06
-2.25885e-06
-1.37761e-06
-2.29004e-06
-2.55064e-06
-1.7704e-06
-2.59254e-06
-2.69328e-06
-2.75936e-06
-2.65992e-06
-1.16685e-07
-1.90046e-06
-2.80693e-06
-2.45542e-06
-2.43442e-06
-2.27505e-06
-2.4636e-06
-2.46587e-06
-1.6601e-06
-1.08966e-06
-2.45502e-06
-1.94703e-06
-2.36511e-06
-2.38727e-06
-2.57243e-06
-2.07573e-06
-2.29779e-06
-2.03885e-06
-2.04082e-06
-1.62092e-06
-2.69508e-06
-2.57829e-06
-2.73449e-06
-2.74547e-06
-7.64513e-07
-2.48349e-06
-1.38382e-06
-1.47919e-06
-2.47642e-06
-1.94744e-06
-2.60443e-06
-2.27334e-06
-1.51001e-06
-1.68665e-06
-2.84029e-07
-1.67702e-06
-1.23584e-06
-2.7462e-06
-2.61411e-06
-2.67654e-06
-2.18709e-07
-1.95762e-07
-2.71446e-06
-2.28065e-06
-1.23049e-06
-2.39822e-06
-2.46498e-06
-2.44879e-06
-2.7903e-06
-2.63062e-06
-1.7443e-06
-1.81233e-06
-1.85038e-06
-2.8047e-06
-2.76488e-06
-2.65081e-06
-2.65197e-06
-2.52977e-06
-2.50961e-06
-1.57957e-06
-1.95726e-06
-1.58316e-06
-2.2751e-06
-2.38243e-06
-2.2815e-06
-2.72032e-06
-2.69396e-06
-2.70639e-06
-2.70348e-06
-2.68007e-06
-2.72035e-06
-7.25526e-07
-2.02144e-06
-2.11165e-06
-2.55321e-06
-2.54786e-06
-2.60118e-06
-7.94036e-07
-1.50128e-06
-2.02202e-06
-2.06282e-06
-4.91923e-07
-1.90061e-06
-1.22246e-06
-2.34486e-06
-1.5571e-06
-1.57221e-06
-1.44963e-06
-2.68929e-06
-2.7272e-06
-2.75928e-06
-2.69589e-06
-2.56344e-06
-1.75918e-06
-1.71188e-06
-2.43042e-06
-2.46115e-06
-1.44344e-06
-7.68641e-07
-8.35668e-07
-2.51797e-06
-1.85409e-06
-1.85398e-06
-8.01927e-07
-8.66137e-07
-2.67309e-06
-1.05353e-06
-1.09063e-06
-1.31968e-06
-2.65393e-06
-2.52808e-06
-3.30521e-07
-1.27409e-06
-2.46714e-06
-2.41825e-06
-1.59784e-06
-1.84989e-06
-2.28236e-06
-2.72518e-06
-6.07817e-07
-1.79846e-06
-2.19493e-06
-4.65341e-07
-2.52592e-06
-2.56489e-06
-2.20912e-06
-2.3618e-06
-2.74071e-06
-2.73952e-06
-2.57191e-06
-1.64969e-06
-1.41749e-06
-1.82912e-06
-2.41276e-06
-2.68435e-06
-1.58712e-06
-2.10285e-06
-2.61453e-06
-2.45435e-06
-5.9546e-07
-1.61571e-06
-2.11582e-06
-1.59738e-06
-7.68559e-07
-2.1377e-06
-1.34017e-06
-2.45693e-06
-2.24744e-06
-2.73321e-06
-2.11341e-06
-2.57977e-06
-2.65493e-06
-2.05655e-06
-2.288e-06
-1.15782e-06
-1.10039e-06
-1.60208e-06
-2.10678e-06
-1.84113e-06
-4.02598e-07
-2.46128e-06
-2.3336e-06
-2.43302e-06
-3.99153e-07
-2.20938e-06
-2.55294e-06
-2.76272e-06
-2.75934e-06
-2.65681e-06