/*--------------------------------*- C++ -*----------------------------------*\
  =========                 |
  \\      /  F ield         | OpenFOAM: The Open Source CFD Toolbox
   \\    /   O peration     | Website:  https://openfoam.org
    \\  /    A nd           | Version:  7
     \\/     M anipulation  |
\*---------------------------------------------------------------------------*/
FoamFile
{
    version     2.0;
    format      ascii;
    class       volVectorField;
    location    "5";
    object      U;
}
// * * * * * * * * * * * * * * * * * * * * * * * * * * * * * * * * * * * * * //

dimensions      [0 1 -1 0 0 0 0];

internalField   nonuniform List<vector> 
13182
(
(0.5 6.16115e-11 1.99534e-26)
(0.5 -3.11195e-10 0)
(0.5 1.28397e-09 6.69783e-26)
(0.5 6.89155e-11 -1.55583e-25)
(0.5 -7.15121e-10 7.21174e-27)
(0.5 -1.84722e-12 7.68576e-26)
(0.5 -1.50362e-10 1.48272e-25)
(0.5 -6.87975e-11 -1.71987e-25)
(0.5 5.8295e-11 -8.97818e-26)
(0.5 4.92525e-10 8.08126e-26)
(0.5 2.15915e-11 0)
(0.5 -3.68244e-11 -5.80683e-28)
(0.5 1.58183e-10 -8.93613e-27)
(0.5 1.67307e-10 -1.70236e-25)
(0.5 -1.2046e-10 0)
(0.5 -8.67801e-11 7.58406e-26)
(0.5 1.02874e-10 -4.34568e-26)
(0.5 -2.89638e-10 0)
(0.5 -1.6675e-10 -1.48237e-25)
(0.5 -2.85203e-10 0)
(0.5 1.08178e-09 -6.63065e-26)
(0.5 -9.63447e-11 0)
(0.5 1.45838e-10 4.7418e-27)
(0.5 3.39604e-10 2.75343e-25)
(0.5 -3.35656e-10 1.61755e-26)
(0.5 -6.49391e-10 0)
(0.5 -3.16025e-10 0)
(0.5 4.1074e-10 0)
(0.5 2.23114e-10 2.59575e-26)
(0.5 -2.95107e-10 -2.77654e-25)
(0.5 -3.30191e-10 0)
(0.5 4.02324e-11 1.62614e-25)
(0.5 -1.22266e-10 -3.66935e-26)
(0.5 -5.33174e-10 3.75936e-26)
(0.5 -1.59034e-09 -1.05205e-25)
(0.5 -8.9073e-10 0)
(0.5 -1.03542e-10 0)
(0.5 7.37498e-10 -1.11978e-25)
(0.5 4.65828e-10 0)
(0.5 2.48755e-10 -8.04813e-26)
(0.5 -1.28773e-09 -2.36119e-27)
(0.5 2.14801e-09 1.83287e-26)
(0.5 -1.10276e-10 6.63502e-26)
(0.5 -3.32298e-10 -2.06012e-26)
(0.5 -3.03023e-10 -9.58693e-27)
(0.5 -1.52966e-09 0)
(0.5 1.64519e-10 1.8783e-25)
(0.5 9.25024e-10 0)
(0.5 5.73264e-10 5.09346e-26)
(0.5 -7.15889e-13 0)
(0.5 5.7517e-10 0)
(0.5 9.12535e-10 0)
(0.5 2.68555e-10 4.06755e-26)
(0.5 -5.50033e-11 6.491e-26)
(0.5 2.60823e-10 0)
(0.5 -1.08504e-10 0)
(0.5 1.0461e-10 0)
(0.5 9.56259e-11 -6.59545e-26)
(0.5 2.87708e-10 -7.79557e-26)
(0.5 -3.72687e-10 0)
(0.5 -3.47661e-11 0)
(0.5 -4.05795e-11 1.78305e-25)
(0.5 8.92913e-11 -7.39561e-26)
(0.5 9.33236e-10 1.27817e-25)
(0.5 -7.0736e-10 1.46748e-25)
(0.5 -8.28311e-10 -2.66304e-25)
(0.5 4.14579e-10 -7.33136e-26)
(0.5 -4.63077e-10 3.46634e-26)
(0.5 3.06336e-10 -1.48875e-26)
(0.5 -2.4877e-10 -7.12572e-26)
(0.5 1.14361e-09 -3.6743e-27)
(0.5 -3.63591e-11 -4.46591e-26)
(0.5 -1.97821e-10 9.35285e-26)
(0.5 -1.35641e-09 0)
(0.5 -6.76115e-10 2.68719e-26)
(0.5 -1.46643e-10 1.80127e-25)
(0.5 -1.55365e-10 0)
(0.5 -8.05316e-11 4.89386e-26)
(0.5 8.29639e-11 1.83563e-25)
(0.5 3.5985e-10 -3.21706e-25)
(0.5 -1.47099e-10 -4.48579e-26)
(0.5 -8.38933e-10 7.80468e-26)
(0.5 -1.43114e-10 4.17268e-26)
(0.5 2.41879e-10 -3.79638e-26)
(0.5 2.78286e-10 -3.19573e-26)
(0.5 -2.80176e-11 0)
(0.5 3.91807e-10 0)
(0.5 8.07631e-10 -7.89431e-26)
(0.5 -3.27555e-10 0)
(0.5 -3.58419e-10 -6.75512e-26)
(0.5 6.73147e-10 0)
(0.5 -2.93568e-10 -9.70728e-26)
(0.5 -9.77496e-11 3.91051e-26)
(0.5 1.26207e-09 8.87215e-26)
(0.5 -4.0715e-10 -1.65806e-25)
(0.5 2.33335e-11 0)
(0.5 1.15523e-09 6.22858e-26)
(0.5 4.07181e-11 4.17407e-26)
(0.5 -1.99888e-10 0)
(0.5 -3.1304e-10 0)
(0.5 -3.05193e-10 -4.46355e-26)
(0.5 7.79977e-10 0)
(0.5 -1.39767e-10 0)
(0.5 -7.77234e-11 -1.49348e-25)
(0.5 -2.32876e-10 -8.55935e-26)
(0.5 -2.26793e-10 -6.58248e-26)
(0.5 -1.29853e-10 -3.23159e-26)
(0.5 1.5539e-09 -3.20969e-26)
(0.5 -1.82626e-10 -2.25537e-25)
(0.5 -7.50149e-10 0)
(0.5 -2.27206e-10 2.015e-25)
(0.5 -4.03609e-10 4.19813e-26)
(0.5 -2.52314e-10 -1.01913e-25)
(0.5 -1.64565e-11 -8.66994e-28)
(0.5 2.86073e-10 6.13473e-26)
(0.5 3.02603e-12 -1.08269e-25)
(0.5 -1.27012e-10 1.12761e-25)
(0.5 2.50147e-09 2.20958e-26)
(0.5 8.08303e-10 1.08002e-25)
(0.5 6.98606e-10 5.00009e-28)
(0.5 2.82898e-10 0)
(0.5 -1.56483e-10 -7.6451e-26)
(0.5 -1.88328e-10 0)
(0.5 -9.37514e-12 -1.51544e-25)
(0.5 2.51959e-11 -6.29695e-26)
(0.5 2.17969e-10 0)
(0.5 1.35081e-10 -7.33734e-26)
(0.5 2.06265e-11 4.14652e-26)
(0.5 7.67133e-12 -1.68316e-25)
(0.5 9.8822e-10 0)
(0.5 4.14825e-10 2.01832e-26)
(0.5 1.7577e-10 0)
(0.5 6.13437e-11 0)
(0.5 3.67946e-10 -4.76743e-26)
(0.5 1.37836e-10 -2.29639e-25)
(0.5 1.10099e-11 1.55066e-25)
(0.5 3.33688e-11 1.19883e-26)
(0.5 -8.50666e-11 -3.74455e-26)
(0.5 -1.15148e-11 0)
(0.5 -2.88e-10 2.83952e-25)
(0.5 -1.20403e-09 1.30153e-25)
(0.5 -1.82496e-09 0)
(0.5 1.71037e-09 3.17947e-26)
(0.5 3.1714e-10 0)
(0.5 7.13128e-10 7.44362e-26)
(0.5 -1.17099e-12 -4.20453e-28)
(0.5 -3.55927e-10 0)
(0.5 6.32377e-10 0)
(0.5 -2.46926e-10 -9.09422e-26)
(0.5 1.11954e-09 0)
(0.5 1.89488e-09 -1.82699e-26)
(0.5 -8.02033e-10 6.02841e-26)
(0.5 -6.07427e-10 0)
(0.5 -3.19461e-10 5.18661e-26)
(0.5 1.84066e-10 1.12871e-25)
(0.5 2.09933e-10 1.28107e-25)
(0.5 7.69196e-10 0)
(0.5 -1.94863e-09 4.62967e-29)
(0.5 -8.84844e-10 -1.79873e-26)
(0.5 -1.67863e-10 0)
(0.5 -4.6626e-11 -6.82547e-26)
(0.5 6.61195e-10 -1.10176e-25)
(0.5 7.69629e-10 4.99309e-26)
(0.5 -1.30651e-10 -1.72138e-25)
(0.5 1.51924e-11 -3.21571e-28)
(0.5 -1.02307e-10 3.93217e-28)
(0.5 -2.41421e-10 9.71974e-26)
(0.5 -1.07474e-09 -1.39134e-25)
(0.5 -4.60674e-10 3.09008e-26)
(0.5 6.33814e-10 0)
(0.5 1.91448e-10 0)
(0.5 4.53567e-10 -8.4975e-26)
(0.5 3.34342e-10 0)
(0.5 -2.82288e-10 -7.7914e-27)
(0.5 -6.43056e-10 5.4065e-26)
(0.5 1.60436e-10 1.50319e-25)
(0.5 1.57086e-09 0)
(0.5 4.90994e-10 -5.38723e-26)
(0.5 8.6867e-11 0)
(0.5 -1.93293e-10 0)
(0.5 -3.71842e-10 -6.56418e-26)
(0.5 8.17848e-10 -5.63924e-26)
(0.5 -2.43449e-10 0)
(0.5 -3.44845e-11 2.3129e-25)
(0.5 -3.84739e-11 -3.7436e-26)
(0.5 -6.40709e-10 -5.70449e-26)
(0.5 1.782e-10 1.10049e-25)
(0.5 -3.37588e-11 -1.65922e-25)
(0.5 -1.79402e-10 9.5276e-26)
(0.5 3.77938e-11 6.82142e-26)
(0.5 -2.36889e-10 -4.66041e-26)
(0.5 -2.52034e-10 1.63281e-29)
(0.5 1.50283e-11 -4.53139e-26)
(0.5 1.59987e-11 0)
(0.5 -2.73083e-10 1.89264e-25)
(0.5 6.14386e-10 5.57054e-26)
(0.5 5.65607e-10 1.05374e-25)
(0.5 3.01362e-10 3.60507e-26)
(0.5 2.09036e-10 1.26284e-25)
(0.5 -3.17658e-10 3.52735e-26)
(0.5 3.66371e-10 -1.59536e-25)
(0.5 1.8724e-10 2.59848e-25)
(0.5 9.99605e-10 9.26623e-27)
(0.5 -1.22063e-10 0)
(0.5 -4.35178e-10 -6.48471e-28)
(0.5 -6.13833e-10 2.72694e-26)
(0.5 -9.35258e-10 -3.46098e-26)
(0.5 1.27785e-09 0)
(0.5 -1.48166e-10 1.11353e-25)
(0.5 -6.68709e-10 -4.19385e-26)
(0.5 4.36507e-10 0)
(0.5 3.37673e-10 0)
(0.5 1.81491e-10 -1.57769e-25)
(0.5 -7.10815e-12 1.93463e-25)
(0.5 -1.26681e-10 0)
(0.5 1.53286e-10 0)
(0.5 3.64819e-10 1.28333e-25)
(0.5 -1.79882e-10 -1.91395e-25)
(0.5 3.02751e-10 -1.3198e-25)
(0.5 -6.89977e-11 -6.19527e-27)
(0.5 -7.18394e-10 0)
(0.5 -3.34023e-10 0)
(0.5 -4.12368e-10 1.96895e-26)
(0.5 2.34841e-10 4.18606e-26)
(0.5 5.94245e-10 3.35789e-26)
(0.5 -6.44619e-11 -1.94498e-25)
(0.5 5.53997e-11 8.15536e-26)
(0.5 -3.84945e-10 0)
(0.5 -9.66591e-11 8.96986e-26)
(0.5 -4.12466e-11 -3.12881e-25)
(0.5 -8.36812e-11 8.69774e-26)
(0.5 -5.05338e-10 -8.52849e-26)
(0.5 -2.72281e-10 8.50079e-26)
(0.5 1.92478e-10 0)
(0.5 -2.71293e-10 -2.09804e-26)
(0.5 3.88531e-11 0)
(0.5 9.01429e-10 -4.71807e-28)
(0.5 -2.60883e-11 1.62951e-25)
(0.5 -5.40099e-11 0)
(0.5 -5.39834e-10 -6.46689e-28)
(0.5 -1.50525e-10 4.341e-26)
(0.5 8.14732e-10 -2.27679e-26)
(0.5 1.43819e-10 -8.49124e-26)
(0.5 -7.99171e-12 7.07456e-26)
(0.5 1.37614e-10 -2.30597e-25)
(0.5 -3.96646e-10 7.89598e-26)
(0.5 6.55102e-10 1.34069e-25)
(0.5 1.66455e-10 -2.6035e-25)
(0.5 8.67139e-12 -9.53639e-27)
(0.5 -9.05691e-11 6.63518e-26)
(0.5 1.26579e-10 3.73462e-26)
(0.5 5.05331e-10 -7.25083e-26)
(0.5 3.08838e-10 1.84742e-25)
(0.5 5.63306e-11 -5.67271e-26)
(0.5 -1.88267e-09 -2.73315e-26)
(0.5 -5.79096e-11 -7.96898e-26)
(0.5 -2.02141e-10 -2.58181e-26)
(0.5 -6.70664e-11 -1.68696e-26)
(0.5 4.66256e-10 -3.96308e-27)
(0.5 1.44627e-11 -2.52564e-26)
(0.5 -7.65296e-10 0)
(0.5 4.38611e-11 2.41952e-25)
(0.5 7.45717e-12 8.62813e-26)
(0.5 -9.16601e-11 0)
(0.5 -5.90622e-10 -8.04588e-26)
(0.5 4.37598e-10 5.74462e-26)
(0.5 1.46983e-09 3.81577e-26)
(0.5 6.17587e-11 0)
(0.5 -1.9605e-10 -1.36856e-25)
(0.5 -1.62313e-10 -1.08482e-26)
(0.5 -3.77966e-11 -1.68583e-25)
(0.5 5.69407e-11 -1.8139e-25)
(0.5 2.22432e-10 1.63038e-25)
(0.5 1.44543e-10 0)
(0.5 -2.27499e-10 0)
(0.5 1.28907e-09 -1.0317e-25)
(0.5 -1.1653e-11 1.71212e-25)
(0.5 -4.90663e-11 -2.42122e-25)
(0.5 1.65723e-10 0)
(0.5 -1.12338e-10 0)
(0.5 -1.00172e-10 -1.84706e-25)
(0.5 6.34478e-10 5.34527e-26)
(0.5 4.56284e-11 0)
(0.5 2.69905e-10 1.06466e-25)
(0.5 2.26918e-10 -1.96683e-26)
(0.5 -1.14172e-09 1.42698e-26)
(0.5 7.19985e-10 1.00829e-25)
(0.5 -1.78268e-10 -1.74387e-25)
(0.5 -1.44797e-09 3.48296e-26)
(0.5 -1.37833e-10 -9.72524e-26)
(0.5 2.96511e-10 4.70709e-26)
(0.5 -2.86995e-10 -3.98594e-26)
(0.5 1.95039e-10 2.73151e-26)
(0.5 -6.10741e-10 -3.70731e-26)
(0.5 -3.51251e-10 4.30022e-26)
(0.5 -4.32115e-12 6.62333e-26)
(0.5 -1.43197e-10 0)
(0.5 -1.80528e-10 0)
(0.5 1.01736e-10 -1.39592e-25)
(0.5 6.6788e-11 -4.70672e-26)
(0.5 -2.17194e-10 6.40257e-26)
(0.5 7.99659e-10 1.93152e-25)
(0.5 2.39437e-10 8.14056e-26)
(0.5 2.54013e-10 4.29244e-26)
(0.5 1.88074e-09 0)
(0.5 3.92886e-10 -5.47275e-26)
(0.5 -3.93256e-11 1.42598e-25)
(0.5 -2.29261e-10 7.57775e-26)
(0.5 1.62416e-10 1.85041e-25)
(0.5 3.98669e-10 -7.02436e-29)
(0.5 1.99521e-10 0)
(0.5 -6.01639e-11 -8.35498e-26)
(0.5 1.13211e-10 -4.96962e-26)
(0.5 -2.78415e-10 1.76471e-25)
(0.5 -3.19663e-10 0)
(0.5 6.3165e-11 -1.99695e-25)
(0.5 -5.28351e-11 1.69895e-25)
(0.5 -2.28401e-10 0)
(0.5 -1.5616e-10 3.28117e-25)
(0.5 -6.33107e-10 4.8076e-26)
(0.5 -7.00302e-10 -7.6657e-26)
(0.5 -5.55426e-11 2.94755e-26)
(0.5 -2.9513e-10 1.66755e-25)
(0.5 4.99992e-11 -8.21822e-26)
(0.5 -1.26023e-10 1.34328e-25)
(0.5 -2.42753e-11 -1.72917e-25)
(0.5 -7.35997e-10 4.93282e-28)
(0.5 -2.22835e-10 0)
(0.5 1.27402e-09 0)
(0.5 -2.85614e-10 -5.44579e-26)
(0.5 -4.89512e-10 0)
(0.5 -4.94366e-10 0)
(0.5 2.97537e-10 0)
(0.5 6.45651e-11 -9.36017e-26)
(0.5 4.21775e-10 0)
(0.5 2.86906e-10 9.21353e-27)
(0.5 -6.07128e-10 -1.40771e-25)
(0.5 -5.56068e-11 -7.62521e-26)
(0.5 -1.53165e-10 0)
(0.5 5.02828e-10 4.45111e-26)
(0.5 1.5059e-09 1.23645e-26)
(0.5 1.72828e-10 0)
(0.5 5.90116e-11 -2.35746e-26)
(0.5 -1.05196e-09 0)
(0.5 8.86828e-10 8.02498e-26)
(0.5 -9.4073e-11 0)
(0.5 3.78054e-11 1.43641e-25)
(0.5 1.32916e-10 0)
(0.5 3.41576e-10 -1.59462e-25)
(0.5 -1.63647e-10 -1.52214e-25)
(0.5 -3.23006e-10 1.43143e-25)
(0.5 -2.18911e-10 -2.59837e-25)
(0.5 8.88923e-10 2.77258e-26)
(0.5 5.23929e-13 1.57358e-25)
(0.5 -2.16724e-10 -2.25857e-25)
(0.5 -6.35217e-11 -7.56034e-26)
(0.5 2.21585e-10 -1.27482e-25)
(0.5 3.58596e-10 -1.32921e-25)
(0.5 -4.33345e-11 -4.41719e-26)
(0.5 2.63182e-12 1.65881e-25)
(0.5 1.5434e-10 2.20311e-26)
(0.5 -2.36387e-10 0)
(0.5 6.04968e-10 -2.80816e-26)
(0.5 -7.75498e-11 4.6506e-26)
(0.5 -1.60218e-09 -7.28297e-26)
(0.5 1.17438e-10 0)
(0.5 -2.3266e-10 1.15676e-25)
(0.5 -1.90968e-10 1.78381e-25)
(0.5 -4.11376e-11 -2.19966e-29)
(0.5 -3.81528e-10 0)
(0.5 -1.1841e-10 -8.70903e-26)
(0.5 -2.95034e-10 8.62907e-26)
(0.5 4.94488e-10 -2.29804e-26)
(0.5 -2.99064e-10 -2.96138e-26)
(0.5 2.08301e-10 -2.00565e-25)
(0.5 -1.21497e-10 6.58681e-26)
(0.5 -2.41795e-10 -1.30648e-25)
(0.5 -3.81096e-11 -3.75476e-26)
(0.5 -6.68782e-10 -3.38018e-27)
(0.5 -1.04889e-09 1.93472e-26)
(0.5 9.81873e-10 -1.51607e-25)
(0.5 -9.15838e-10 -8.63655e-26)
(0.5 -2.4271e-10 -1.70357e-25)
(0.5 -1.75625e-10 -8.10259e-26)
(0.5 -3.73743e-10 -5.02156e-26)
(0.5 7.44088e-10 -2.00598e-27)
(0.5 1.46496e-11 -1.05204e-25)
(0.5 7.63795e-11 -4.38866e-26)
(0.5 -1.00376e-09 3.77188e-27)
(0.5 -2.79044e-10 1.17954e-27)
(0.5 -5.32913e-10 0)
(0.5 -5.52656e-12 -1.16792e-26)
(0.5 4.95904e-11 1.78171e-25)
(0.5 -6.31827e-10 -7.14537e-26)
(0.5 -1.68313e-11 -6.28534e-26)
(0.5 1.3554e-10 0)
(0.5 -1.24376e-10 0)
(0.5 1.26372e-10 4.29704e-26)
(0.5 1.25843e-09 -1.47258e-25)
(0.5 -1.87367e-10 4.71389e-26)
(0.5 1.07106e-09 0)
(0.5 9.3929e-10 4.24963e-26)
(0.5 -9.9569e-12 -3.63144e-26)
(0.5 -1.92e-10 3.6275e-26)
(0.5 -2.40568e-10 1.21042e-25)
(0.5 5.14043e-10 -1.07001e-25)
(0.5 2.67523e-10 7.6019e-26)
(0.5 -3.11459e-11 -1.76797e-25)
(0.5 -4.15536e-12 0)
(0.5 3.41171e-10 1.23495e-25)
(0.5 -1.00221e-09 1.49913e-25)
(0.5 -7.65648e-10 0)
(0.5 -8.55692e-10 -1.0463e-26)
(0.5 -4.04147e-10 3.30075e-26)
(0.5 -5.84987e-14 0)
(0.5 4.34122e-10 -3.00448e-26)
(0.5 -1.90294e-11 0)
(0.5 -1.59246e-09 2.98275e-27)
(0.5 2.76214e-10 0)
(0.5 5.27717e-10 0)
(0.5 -3.85685e-10 0)
(0.5 -3.21085e-10 3.36951e-25)
(0.5 -3.65796e-10 -2.19887e-26)
(0.5 -3.88658e-10 0)
(0.5 -7.14164e-11 0)
(0.5 -1.02301e-09 -7.68912e-26)
(0.5 2.67497e-10 -8.5438e-26)
(0.5 1.61832e-12 -6.56102e-26)
(0.5 -1.86012e-10 0)
(0.5 -2.91352e-10 8.10337e-26)
(0.5 -7.35967e-10 1.01126e-26)
(0.5 -5.5289e-10 -1.42279e-25)
(0.5 -4.0027e-10 -1.86921e-26)
(0.5 3.72464e-11 -1.71337e-25)
(0.5 -1.34162e-10 -9.20334e-26)
(0.5 1.17321e-09 0)
(0.5 -4.66713e-11 -7.56257e-26)
(0.5 -8.32882e-11 -2.87953e-26)
(0.5 1.11802e-09 -7.55174e-26)
(0.5 -5.9717e-10 0)
(0.5 5.32995e-10 3.77095e-26)
(0.5 -5.22378e-10 1.19267e-25)
(0.5 3.41191e-10 0)
(0.5 -2.03991e-10 8.10704e-26)
(0.5 5.00502e-10 -2.02184e-25)
(0.5 -3.40105e-12 0)
(0.5 1.31648e-09 0)
(0.5 7.48201e-12 0)
(0.5 -7.23131e-10 0)
(0.5 -1.28196e-10 -8.90732e-26)
(0.5 2.47156e-12 1.6197e-25)
(0.5 -5.7253e-10 -1.62072e-25)
(0.5 4.94787e-10 -5.08804e-26)
(0.5 -2.39808e-11 -4.59162e-26)
(0.5 1.57798e-09 -2.35168e-26)
(0.5 4.21603e-10 -1.4321e-25)
(0.5 -6.6352e-11 0)
(0.5 -2.64818e-10 0)
(0.5 -1.8273e-10 0)
(0.5 1.76344e-10 -2.2447e-25)
(0.5 1.8091e-12 8.34937e-26)
(0.5 1.71942e-11 -1.98429e-26)
(0.5 1.68751e-09 -1.60386e-27)
(0.5 -8.37018e-11 -1.38429e-25)
(0.5 1.63038e-10 0)
(0.5 5.9945e-11 -1.95162e-25)
(0.5 -3.60823e-10 6.16474e-26)
(0.5 4.85508e-10 3.05197e-26)
(0.5 -4.35643e-11 -2.04303e-28)
(0.5 1.64023e-11 0)
(0.5 2.00015e-10 1.34913e-25)
(0.5 3.11464e-09 0)
(0.5 4.85461e-11 1.76137e-25)
(0.5 5.78521e-11 0)
(0.5 -1.26785e-11 3.29837e-26)
(0.5 -1.14473e-09 -5.88181e-26)
(0.5 -2.71223e-10 4.72928e-26)
(0.5 1.32234e-09 1.16166e-26)
(0.5 -3.00159e-10 -4.68047e-26)
(0.5 -2.64936e-10 1.73621e-25)
(0.5 -5.88425e-12 0)
(0.5 -1.57727e-10 1.63917e-25)
(0.5 3.12475e-10 0)
(0.5 -1.08922e-10 0)
(0.5 -1.55967e-10 1.47343e-26)
(0.5 -2.16526e-09 4.26589e-26)
(0.5 3.0156e-10 2.06294e-25)
(0.5 2.85507e-10 -1.4225e-25)
(0.5 3.70617e-10 0)
(0.5 3.10951e-09 -1.6162e-26)
(0.5 8.52596e-11 0)
(0.5 3.61465e-10 -6.79275e-26)
(0.5 -2.92769e-11 8.52953e-26)
(0.5 -7.13467e-10 -6.77631e-26)
(0.5 -1.15353e-10 0)
(0.5 -8.8934e-10 -5.31186e-26)
(0.5 5.66927e-10 1.09363e-25)
(0.5 9.71756e-10 3.54e-27)
(0.5 -2.93477e-10 0)
(0.5 2.45065e-10 1.29191e-25)
(0.5 -6.05062e-11 0)
(0.5 -1.43752e-11 -9.11715e-26)
(0.5 -8.47073e-11 -4.4937e-26)
(0.5 7.1605e-11 0)
(0.5 -6.51767e-10 4.6478e-26)
(0.5 -2.09674e-10 2.00357e-26)
(0.5 1.72067e-10 0)
(0.5 -2.44491e-10 0)
(0.5 4.9708e-10 1.71583e-25)
(0.5 -6.21492e-10 -5.90018e-26)
(0.5 1.32038e-10 -5.79388e-26)
(0.5 3.82766e-10 0)
(0.5 -3.54427e-11 0)
(0.5 1.12484e-09 -1.49339e-25)
(0.5 -3.19019e-10 -1.38966e-25)
(0.5 -1.24572e-10 7.06186e-28)
(0.5 2.39432e-10 -9.85647e-26)
(0.5 1.89074e-11 0)
(0.5 -4.09977e-10 8.17006e-26)
(0.5 2.80903e-09 4.92038e-26)
(0.5 -8.74607e-11 1.63142e-25)
(0.5 -3.12436e-11 0)
(0.5 -3.6199e-10 4.1365e-26)
(0.5 -1.26559e-09 -2.60941e-26)
(0.5 5.34542e-10 5.69224e-26)
(0.5 -1.79142e-10 0)
(0.5 -1.72804e-10 -7.63984e-26)
(0.5 4.75598e-10 0)
(0.5 -1.10497e-10 0)
(0.5 -4.96795e-10 6.75211e-26)
(0.5 -1.91684e-10 -6.56681e-26)
(0.5 2.5991e-10 1.31938e-25)
(0.5 2.22555e-10 -8.93432e-26)
(0.5 2.83918e-10 -7.76078e-26)
(0.5 8.56032e-10 7.87026e-27)
(0.5 -8.20932e-11 7.77472e-26)
(0.5 -3.65103e-10 -8.14041e-26)
(0.5 1.51678e-09 8.65927e-26)
(0.5 -2.68298e-10 0)
(0.5 -3.72826e-10 0)
(0.5 -2.63798e-11 0)
(0.5 5.02578e-11 8.5097e-26)
(0.5 -7.95533e-11 9.64297e-26)
(0.5 2.66579e-10 2.92154e-26)
(0.5 4.03367e-11 1.73291e-25)
(0.5 1.55067e-10 3.1626e-26)
(0.5 -5.58154e-10 -6.59097e-26)
(0.5 3.99632e-12 1.58134e-25)
(0.5 -9.52038e-10 -9.91941e-26)
(0.5 -3.22282e-10 1.66497e-25)
(0.5 -2.13247e-10 4.35765e-26)
(0.5 -3.52922e-10 -8.44073e-26)
(0.5 -1.97522e-10 0)
(0.5 -1.76186e-10 1.28735e-25)
(0.5 -3.70932e-10 4.62418e-26)
(0.5 3.0456e-11 2.87651e-27)
(0.5 -1.16857e-11 -4.45888e-26)
(0.5 3.16379e-10 -4.06387e-26)
(0.5 8.98303e-11 2.11794e-25)
(0.5 -1.48757e-10 -2.18068e-25)
(0.5 -3.50087e-10 9.76969e-26)
(0.5 -3.72276e-10 0)
(0.5 -2.58035e-10 2.09014e-25)
(0.5 -2.89132e-10 7.3287e-26)
(0.5 4.12315e-11 -1.64617e-25)
(0.5 2.58232e-10 -1.63011e-25)
(0.5 -3.95289e-10 6.81659e-26)
(0.5 1.57473e-09 -2.34498e-26)
(0.5 1.54999e-09 -8.32104e-26)
(0.5 8.08082e-12 0)
(0.5 3.8973e-10 1.8494e-26)
(0.5 -1.38831e-09 -8.72147e-26)
(0.5 -5.57228e-10 9.87539e-26)
(0.5 -3.61165e-10 7.49424e-26)
(0.5 -1.88146e-11 -1.6186e-25)
(0.5 -8.14508e-13 1.77572e-25)
(0.5 3.02092e-10 0)
(0.5 8.94971e-11 -8.06282e-26)
(0.5 1.8028e-10 9.75267e-26)
(0.5 9.94295e-10 -5.77051e-26)
(0.5 2.43753e-10 -1.49946e-25)
(0.5 1.61811e-09 0)
(0.5 -6.1967e-11 -2.48537e-25)
(0.5 3.42046e-10 4.34941e-28)
(0.5 5.36521e-10 8.35673e-26)
(0.5 -5.24648e-10 4.09117e-26)
(0.5 6.34304e-11 0)
(0.5 -1.59289e-10 -1.62208e-25)
(0.5 -4.55912e-10 1.75464e-25)
(0.5 -5.8563e-10 1.12913e-25)
(0.5 -6.44717e-10 1.11444e-25)
(0.5 -4.66698e-10 0)
(0.5 2.22408e-10 -1.48845e-25)
(0.5 -3.97017e-10 1.46074e-25)
(0.5 -2.47868e-10 2.25486e-25)
(0.5 9.12008e-10 9.14789e-26)
(0.5 8.99142e-11 6.32505e-26)
(0.5 -6.17817e-11 0)
(0.5 -8.42697e-11 -1.1945e-25)
(0.5 1.11677e-10 -2.06389e-25)
(0.5 3.17642e-11 -1.80464e-25)
(0.5 -3.54976e-11 0)
(0.5 -1.86964e-10 0)
(0.5 5.58687e-12 1.29419e-25)
(0.5 1.46224e-09 -2.12522e-26)
(0.5 1.5063e-10 -5.53157e-28)
(0.5 5.45726e-10 2.24621e-26)
(0.5 2.92996e-10 1.8425e-25)
(0.5 -3.0018e-10 8.90782e-26)
(0.5 -8.93535e-11 0)
(0.5 -1.25467e-10 1.89271e-25)
(0.5 -6.56188e-11 4.38921e-26)
(0.5 -2.66726e-10 -7.76637e-26)
(0.5 -4.03621e-10 7.43552e-26)
(0.5 -7.12867e-10 -5.73033e-26)
(0.5 1.93971e-09 -1.03712e-26)
(0.5 1.45096e-09 1.03411e-25)
(0.5 -1.90438e-10 -7.08708e-26)
(0.5 -2.92963e-10 -3.23733e-26)
(0.5 3.49938e-10 -3.86691e-26)
(0.5 1.01242e-10 1.74771e-25)
(0.5 1.45545e-09 0)
(0.5 2.63087e-10 0)
(0.5 -1.44842e-10 9.14669e-26)
(0.5 2.62338e-09 -7.43556e-26)
(0.5 1.82686e-09 1.13427e-25)
(0.5 -9.31479e-11 1.71213e-25)
(0.5 -2.22581e-10 1.81744e-25)
(0.5 -8.42557e-10 0)
(0.5 2.92538e-10 1.01196e-26)
(0.5 -1.3939e-10 -4.66046e-26)
(0.5 -7.02032e-11 0)
(0.5 3.0261e-10 0)
(0.5 6.39176e-10 -1.74585e-26)
(0.5 1.99358e-10 0)
(0.5 1.35793e-09 -9.35834e-26)
(0.5 8.87266e-12 4.96022e-26)
(0.5 -1.25693e-10 2.02324e-26)
(0.5 -6.32735e-11 -7.0616e-26)
(0.5 -5.34316e-11 5.26621e-28)
(0.5 2.96467e-11 -8.88827e-26)
(0.5 -2.14347e-09 0)
(0.5 -5.5155e-10 1.49851e-25)
(0.5 3.08577e-10 -1.61362e-25)
(0.5 -3.28914e-11 1.66799e-28)
(0.5 -2.54995e-10 1.47148e-26)
(0.5 8.81996e-12 0)
(0.5 -7.79631e-11 4.64433e-26)
(0.5 9.77755e-10 5.64844e-26)
(0.5 -4.98681e-10 -1.66245e-26)
(0.5 -1.90526e-10 9.29157e-26)
(0.5 -1.56023e-10 -2.6297e-25)
(0.5 1.84302e-10 -5.21154e-26)
(0.5 -2.16702e-10 4.28982e-26)
(0.5 -2.97626e-11 0)
(0.5 -2.57472e-10 7.04102e-26)
(0.5 -1.34855e-10 -9.33932e-26)
(0.5 -1.54256e-11 -6.01323e-26)
(0.5 6.07668e-10 3.96244e-27)
(0.5 -4.91105e-10 2.58216e-26)
(0.5 -3.79974e-10 2.60085e-25)
(0.5 -4.7987e-11 0)
(0.5 1.04919e-09 3.84677e-26)
(0.5 8.49495e-11 -7.60772e-26)
(0.5 -1.08204e-10 -1.58583e-25)
(0.5 3.05253e-10 -1.51527e-25)
(0.5 -2.12517e-10 -1.6512e-25)
(0.5 -3.09175e-10 8.25029e-26)
(0.5 5.50596e-11 0)
(0.5 -3.54605e-11 7.00665e-26)
(0.5 -2.77553e-11 0)
(0.5 3.98851e-10 0)
(0.5 2.38354e-11 0)
(0.5 1.79301e-11 1.37696e-25)
(0.5 2.03173e-10 -9.77484e-27)
(0.5 9.06448e-10 -2.82249e-26)
(0.5 -6.56514e-11 3.68046e-26)
(0.5 1.87309e-10 4.51202e-26)
(0.5 -1.77068e-09 -7.32675e-26)
(0.5 1.86131e-11 -1.74973e-25)
(0.5 4.04888e-10 -1.01682e-25)
(0.5 5.37467e-11 -9.31363e-26)
(0.5 -1.27042e-11 0)
(0.5 -6.12437e-10 -9.26197e-26)
(0.5 -1.47185e-10 -1.90944e-25)
(0.5 -2.0014e-11 0)
(0.5 -7.30223e-11 0)
(0.5 1.7599e-10 0)
(0.5 8.25888e-10 -2.14446e-26)
(0.5 6.1124e-11 1.79108e-25)
(0.5 1.49126e-10 -1.66861e-25)
(0.5 6.53321e-11 2.32901e-25)
(0.5 1.98362e-10 0)
(0.5 9.53689e-11 1.00851e-25)
(0.5 -5.13748e-11 1.81886e-25)
(0.5 -1.0895e-10 -1.50054e-25)
(0.5 -4.70353e-10 0)
(0.5 6.78142e-11 0)
(0.5 -2.17551e-11 -7.74502e-26)
(0.5 1.0485e-09 -4.69268e-26)
(0.5 -2.53714e-12 2.14844e-26)
(0.5 -1.05395e-10 0)
(0.5 1.492e-10 -2.6944e-25)
(0.5 -1.96413e-10 -1.80965e-25)
(0.5 1.19101e-09 2.65879e-26)
(0.5 5.07591e-11 0)
(0.5 -1.99987e-10 0)
(0.5 -1.06483e-10 8.24341e-26)
(0.5 9.70121e-11 2.95891e-26)
(0.5 3.68936e-10 0)
(0.5 -1.5201e-10 9.16037e-26)
(0.5 1.31586e-10 -4.07991e-26)
(0.5 -8.60915e-11 0)
(0.5 -9.32005e-11 -8.81229e-26)
(0.5 -8.14265e-10 8.53555e-26)
(0.5 7.11462e-10 -9.97423e-26)
(0.5 1.1018e-10 0)
(0.5 1.79444e-10 -1.9354e-25)
(0.5 7.94161e-11 0)
(0.5 -6.62486e-10 5.39764e-27)
(0.5 -2.59601e-10 0)
(0.5 1.19354e-09 6.83281e-27)
(0.5 -1.99587e-11 1.67406e-25)
(0.5 4.05664e-10 -1.45652e-25)
(0.5 -1.7498e-10 0)
(0.5 -1.43975e-10 3.34884e-26)
(0.5 2.33624e-09 0)
(0.5 7.59822e-10 6.74514e-26)
(0.5 -5.07872e-10 -8.83539e-26)
(0.5 -1.29892e-10 1.88525e-25)
(0.5 -3.30742e-10 1.57433e-25)
(0.5 -4.95081e-10 7.72191e-26)
(0.5 3.41188e-10 -7.20654e-26)
(0.5 2.44237e-10 1.28204e-25)
(0.5 -6.31751e-10 3.73861e-26)
(0.5 1.56545e-10 1.08804e-25)
(0.5 -1.12262e-11 -1.81984e-25)
(0.5 3.74118e-12 0)
(0.5 -2.14671e-10 1.62244e-25)
(0.5 -4.40823e-10 2.02782e-25)
(0.5 -6.91383e-11 -6.8345e-26)
(0.5 6.10853e-11 8.82665e-26)
(0.5 -7.58484e-11 6.78976e-26)
(0.5 -6.26796e-10 0)
(0.5 -4.08513e-11 0)
(0.5 -5.60476e-10 1.23709e-25)
(0.5 -5.49137e-10 -7.27215e-26)
(0.5 -3.39872e-10 7.57469e-26)
(0.5 1.24176e-10 -3.83314e-26)
(0.5 5.35085e-11 -1.56147e-25)
(0.5 3.28863e-11 1.55349e-25)
(0.5 -7.2793e-10 0)
(0.5 -1.31098e-10 0)
(0.5 -4.6082e-11 -4.99046e-27)
(0.5 -3.15005e-10 -1.30487e-27)
(0.5 -9.32659e-11 -5.85047e-27)
(0.5 8.18571e-10 0)
(0.5 1.56709e-10 -1.47683e-28)
(0.5 9.83495e-12 0)
(0.5 6.93183e-11 -3.382e-26)
(0.5 -7.56727e-11 1.86238e-25)
(0.5 -8.29624e-14 -6.79679e-26)
(0.5 -5.02822e-10 9.32542e-26)
(0.5 -4.64994e-12 0)
(0.5 -6.45596e-11 -2.22868e-26)
(0.5 1.12304e-10 -4.70184e-26)
(0.5 -4.50297e-10 1.38512e-25)
(0.5 4.96163e-11 -3.99626e-26)
(0.5 1.4105e-11 4.8782e-26)
(0.5 -7.92413e-11 1.50598e-25)
(0.5 -8.55585e-10 -1.41753e-26)
(0.5 -4.08427e-10 3.38782e-26)
(0.5 -2.40874e-11 -4.10711e-26)
(0.5 9.47026e-11 3.69513e-26)
(0.5 2.21646e-11 4.47674e-26)
(0.5 3.23486e-11 1.60774e-25)
(0.5 -5.90826e-10 -8.85766e-26)
(0.5 -7.88485e-11 -1.34391e-25)
(0.5 1.52602e-11 1.91564e-25)
(0.5 3.78216e-11 -2.47691e-25)
(0.5 6.73019e-11 3.4307e-26)
(0.5 7.07825e-10 5.7776e-26)
(0.5 -2.01733e-10 1.65781e-25)
(0.5 -5.73294e-10 1.53312e-25)
(0.5 -3.63084e-10 7.41433e-28)
(0.5 1.72525e-09 0)
(0.5 1.06581e-12 1.79845e-25)
(0.5 4.53831e-10 -8.93356e-26)
(0.5 1.27031e-10 3.77751e-26)
(0.5 -2.21036e-10 -5.56158e-26)
(0.5 5.95159e-10 1.54202e-25)
(0.5 8.14127e-10 4.88814e-26)
(0.5 -1.24505e-10 -1.85904e-25)
(0.5 -3.10428e-10 0)
(0.5 -3.45886e-11 5.40976e-26)
(0.5 1.0698e-09 -4.03906e-26)
(0.5 5.8742e-11 0)
(0.5 3.17457e-10 -2.78426e-25)
(0.5 2.59213e-14 8.01456e-26)
(0.5 9.39355e-11 -4.60892e-26)
(0.5 8.62951e-10 5.5795e-26)
(0.5 -5.28119e-11 6.81008e-26)
(0.5 -1.03484e-09 0)
(0.5 -1.17969e-10 1.7899e-25)
(0.5 8.29717e-10 7.25637e-27)
(0.5 -1.93579e-10 -1.89041e-25)
(0.5 -2.26414e-10 -1.4148e-25)
(0.5 -5.98197e-11 -2.27225e-26)
(0.5 1.48628e-10 8.23323e-26)
(0.5 -6.30395e-10 3.67364e-26)
(0.5 -2.13415e-10 0)
(0.5 -2.16562e-10 0)
(0.5 1.30231e-10 -1.04389e-27)
(0.5 -7.81649e-10 -9.40814e-26)
(0.5 1.29872e-09 5.34413e-26)
(0.5 -8.04518e-10 1.18737e-25)
(0.5 -5.88975e-10 0)
(0.5 5.42611e-10 2.64933e-27)
(0.5 2.07452e-10 -1.50566e-25)
(0.5 7.23381e-11 7.02751e-26)
(0.5 -3.63731e-10 0)
(0.5 -9.13584e-11 0)
(0.5 -3.78026e-10 -1.23839e-25)
(0.5 4.93263e-11 -3.67804e-26)
(0.5 2.55399e-11 3.7229e-26)
(0.5 5.99414e-11 -4.39414e-26)
(0.5 2.03273e-10 -4.52256e-26)
(0.5 1.14985e-09 0)
(0.5 2.90707e-10 0)
(0.5 -5.03552e-10 1.11785e-25)
(0.5 1.89354e-12 3.48013e-25)
(0.5 -8.74278e-11 -1.49295e-25)
(0.5 2.02773e-10 -8.83828e-26)
(0.5 1.7428e-10 -2.02599e-26)
(0.5 -1.70522e-10 8.25875e-26)
(0.5 -9.14806e-10 -1.52465e-25)
(0.5 1.24209e-09 -2.99658e-26)
(0.5 7.27275e-10 3.06875e-26)
(0.5 1.00669e-10 1.0162e-25)
(0.5 6.78009e-10 0)
(0.5 -5.62112e-11 3.74603e-25)
(0.5 8.93491e-10 4.98254e-26)
(0.5 -2.43024e-10 -1.46982e-25)
(0.5 5.5452e-11 0)
(0.5 1.12017e-10 3.92794e-26)
(0.5 1.20665e-10 0)
(0.5 7.59255e-10 8.32832e-26)
(0.5 -1.01614e-09 4.47595e-26)
(0.5 -1.16133e-10 8.13677e-26)
(0.5 -1.11482e-11 0)
(0.5 1.41117e-11 0)
(0.5 2.7804e-10 0)
(0.5 3.67741e-10 9.96181e-26)
(0.5 -3.02108e-10 1.75568e-25)
(0.5 -2.41347e-10 -1.06265e-25)
(0.5 1.19948e-09 -1.14692e-25)
(0.5 9.85499e-10 0)
(0.5 -1.62823e-10 4.89935e-26)
(0.5 -1.16026e-10 -8.8812e-26)
(0.5 2.7426e-10 0)
(0.5 -1.50184e-10 0)
(0.5 7.01133e-11 2.95733e-26)
(0.5 -1.96142e-10 9.13e-26)
(0.5 -1.67061e-09 0)
(0.5 1.11987e-09 -6.68694e-26)
(0.5 1.11338e-11 -8.47941e-26)
(0.5 1.0496e-09 4.15745e-27)
(0.5 2.72834e-10 -8.08545e-26)
(0.5 2.02205e-12 -7.95208e-26)
(0.5 -9.38514e-11 5.07036e-26)
(0.5 -2.1533e-10 -1.0692e-26)
(0.5 -1.65877e-10 -9.28234e-26)
(0.5 -4.84397e-10 -6.91691e-26)
(0.5 -2.20565e-10 0)
(0.5 -5.35889e-10 -1.69189e-26)
(0.5 -1.45451e-10 0)
(0.5 7.58364e-12 1.00071e-25)
(0.5 -6.79443e-10 0)
(0.5 -1.17745e-10 -8.38858e-26)
(0.5 -1.5586e-10 -3.09626e-26)
(0.5 1.7125e-10 1.91551e-25)
(0.5 8.26502e-11 1.7629e-25)
(0.5 4.665e-10 2.63379e-26)
(0.5 1.48109e-10 -6.11149e-26)
(0.5 -4.96884e-10 0)
(0.5 -9.00059e-11 -4.67897e-26)
(0.5 -1.25913e-10 2.82723e-27)
(0.5 -4.88001e-12 0)
(0.5 -7.71983e-11 2.23792e-25)
(0.5 -3.18518e-10 -2.38574e-25)
(0.5 5.86964e-10 -2.57612e-27)
(0.5 -1.40825e-09 -9.44542e-27)
(0.5 -1.89734e-12 2.15637e-26)
(0.5 -4.16927e-10 0)
(0.5 3.90513e-11 0)
(0.5 8.04742e-11 1.73926e-25)
(0.5 2.27969e-10 1.14872e-25)
(0.5 -1.16602e-11 0)
(0.5 2.81154e-09 0)
(0.5 -1.20341e-10 -8.48961e-26)
(0.5 -3.24736e-11 0)
(0.5 -3.02428e-10 0)
(0.5 1.18304e-09 -7.47494e-26)
(0.5 -2.46034e-10 1.58045e-25)
(0.5 1.73436e-11 0)
(0.5 5.01516e-10 0)
(0.5 -7.69417e-10 -6.01853e-26)
(0.5 8.52838e-10 -3.37424e-28)
(0.5 -1.59326e-11 -1.71783e-25)
(0.5 6.94364e-10 2.2305e-26)
(0.5 -1.72452e-10 -3.77982e-26)
(0.5 1.86004e-09 -4.08078e-26)
(0.5 -2.34229e-10 1.05423e-27)
(0.5 -6.23926e-10 -6.44985e-26)
(0.5 -1.26573e-10 1.60384e-25)
(0.5 4.89228e-10 -3.93319e-27)
(0.5 7.08435e-10 -2.85342e-26)
(0.5 -1.02505e-10 0)
(0.5 3.8765e-10 -4.36329e-26)
(0.5 -3.09973e-11 -4.23669e-26)
(0.5 8.39529e-11 2.17528e-25)
(0.5 1.63949e-09 -1.29472e-26)
(0.5 2.94792e-10 0)
(0.5 -2.56014e-10 0)
(0.5 6.42375e-10 -2.08191e-28)
(0.5 3.54054e-11 -2.99016e-27)
(0.5 -2.16302e-10 1.18147e-25)
(0.5 -2.12275e-11 5.86492e-26)
(0.5 1.64223e-10 7.93882e-26)
(0.5 6.03721e-11 2.08695e-26)
(0.5 -1.94388e-10 -2.36389e-28)
(0.5 5.43036e-11 0)
(0.5 1.32818e-10 4.21046e-26)
(0.5 4.37659e-10 0)
(0.5 4.21057e-10 8.78813e-26)
(0.5 -2.17579e-11 1.68178e-25)
(0.5 6.66284e-11 1.78442e-25)
(0.5 -7.18425e-10 6.87436e-26)
(0.5 -1.14667e-09 -1.2395e-25)
(0.5 3.24293e-10 -1.57271e-25)
(0.5 -5.76373e-10 3.91428e-26)
(0.5 -3.63366e-10 -7.59397e-26)
(0.5 2.75793e-10 -1.35099e-25)
(0.5 1.67577e-10 -1.30064e-25)
(0.5 9.18547e-11 0)
(0.5 1.48362e-09 -1.141e-25)
(0.5 6.85006e-11 0)
(0.5 5.98195e-10 0)
(0.5 1.06346e-09 0)
(0.5 -6.34126e-10 -5.26496e-26)
(0.5 -1.487e-10 -2.84045e-26)
(0.5 -1.88973e-10 -5.26582e-27)
(0.5 6.30958e-10 0)
(0.5 -2.77097e-10 1.39324e-25)
(0.5 -1.46453e-10 -1.56135e-25)
(0.5 -3.34778e-10 0)
(0.5 4.99484e-10 -3.86254e-26)
(0.5 8.30638e-10 -5.23656e-26)
(0.5 3.23462e-10 -1.16316e-25)
(0.5 -1.02762e-10 -9.36774e-26)
(0.5 6.13453e-10 7.20255e-26)
(0.5 8.49946e-11 1.35007e-25)
(0.5 -7.55914e-11 4.86276e-26)
(0.5 6.32522e-10 -9.50784e-26)
(0.5 -2.14168e-10 7.35386e-26)
(0.5 -1.01063e-10 0)
(0.5 5.16352e-10 -7.05071e-26)
(0.5 -8.30917e-11 1.35136e-25)
(0.5 -6.56969e-11 2.39563e-25)
(0.5 -1.33394e-10 0)
(0.5 -9.60973e-10 0)
(0.5 1.45471e-10 8.82182e-26)
(0.5 -7.70578e-12 0)
(0.5 -1.74178e-11 1.36471e-25)
(0.5 6.8159e-10 -1.31117e-26)
(0.5 2.17976e-09 0)
(0.5 2.47766e-10 1.07661e-25)
(0.5 -9.28657e-12 -9.10309e-26)
(0.5 4.75861e-13 0)
(0.5 2.30966e-10 1.69496e-25)
(0.5 -1.11194e-11 4.1632e-26)
(0.5 -2.55633e-10 6.10966e-26)
(0.5 -1.2139e-10 -8.85161e-26)
(0.5 -1.08717e-09 1.49208e-25)
(0.5 7.88025e-11 0)
(0.5 -3.20793e-11 1.45197e-25)
(0.5 -5.33083e-11 1.7504e-25)
(0.5 -9.5925e-11 -6.73236e-26)
(0.5 -3.70804e-10 3.71732e-29)
(0.5 -5.20627e-11 7.19738e-26)
(0.5 -2.23649e-10 7.47147e-26)
(0.5 1.58867e-10 0)
(0.5 -1.09885e-10 -8.75777e-26)
(0.5 2.59055e-10 2.18756e-25)
(0.5 -7.23909e-11 -8.27686e-26)
(0.5 -1.87718e-09 5.98256e-26)
(0.5 1.61267e-10 4.41967e-26)
(0.5 2.19253e-09 -1.26411e-26)
(0.5 2.72684e-10 2.79518e-27)
(0.5 2.23132e-11 -2.71918e-25)
(0.5 -3.51618e-11 0)
(0.5 -2.69195e-10 5.57819e-26)
(0.5 1.38123e-10 1.5581e-25)
(0.5 -1.11506e-10 5.03647e-26)
(0.5 -2.43682e-10 0)
(0.5 1.86838e-10 -1.83238e-25)
(0.5 -5.64337e-11 0)
(0.5 -5.3547e-11 -8.16562e-26)
(0.5 9.00176e-11 -1.85782e-26)
(0.5 2.91918e-11 -1.50284e-25)
(0.5 -6.4962e-12 0)
(0.5 -2.28079e-10 0)
(0.5 -2.22318e-10 2.77311e-25)
(0.5 -7.36656e-10 7.89709e-26)
(0.5 -2.37498e-10 -7.62733e-26)
(0.5 -7.96867e-10 -9.66027e-26)
(0.5 1.4535e-10 0)
(0.5 4.73377e-10 1.19053e-25)
(0.5 -1.65378e-09 -1.01587e-26)
(0.5 1.17842e-12 -1.58734e-25)
(0.5 -1.38488e-10 1.68937e-25)
(0.5 -1.34979e-10 -1.80937e-25)
(0.5 -8.77184e-11 8.54897e-26)
(0.5 4.68794e-10 -1.59867e-25)
(0.5 6.65033e-10 2.25951e-25)
(0.5 -3.26357e-10 3.83628e-29)
(0.5 -7.78463e-11 1.68707e-25)
(0.5 8.70466e-11 1.44454e-25)
(0.5 2.54266e-11 0)
(0.5 -1.89247e-10 -4.52752e-26)
(0.5 -1.85153e-10 -9.45829e-26)
(0.5 -1.45533e-09 0)
(0.5 -7.0753e-10 -8.56298e-28)
(0.5 1.39306e-09 0)
(0.5 -7.57042e-10 -1.135e-25)
(0.5 1.32376e-09 -2.32453e-26)
(0.5 -9.43104e-11 -2.10112e-28)