/*--------------------------------*- C++ -*----------------------------------*\
  =========                 |
  \\      /  F ield         | OpenFOAM: The Open Source CFD Toolbox
   \\    /   O peration     | Website:  https://openfoam.org
    \\  /    A nd           | Version:  7
     \\/     M anipulation  |
\*---------------------------------------------------------------------------*/
FoamFile
{
    version     2.0;
    format      ascii;
    class       volScalarField;
    location    "10";
    object      p;
}
// * * * * * * * * * * * * * * * * * * * * * * * * * * * * * * * * * * * * * //

dimensions      [0 2 -2 0 0 0 0];

internalField   nonuniform List<scalar> 
13182
(
328.882
61.9878
243.292
345.142
129.867
314.285
316.351
339.389
350.393
162.509
162.597
193.77
318.669
315.004
309.885
323.677
348.266
354.35
306.712
309.23
307.913
335.498
322.942
281.139
281.353
283.643
336.53
278.973
197.04
355.334
355.232
348.455
322.552
160.21
146.951
309.629
349.795
212.35
228.121
337.495
63.2939
72.0717
243.8
32.3322
273.552
115.84
344.626
224.99
215.519
342.794
265.164
267.968
155.186
339.291
315.757
284.417
203.425
340.916
316.575
351.783
350.01
347.196
337.611
291.55
262.257
260.559
319.479
276.198
136.283
295.215
38.3183
335.863
339.092
277.953
54.5412
348.698
348.663
343.004
328.946
328.322
354.721
155
306.263
308.787
52.7903
56.5816
68.4789
170.956
284.022
289.309
186.869
349.326
170.799
169.571
330.056
342.484
187.384
325.67
341.537
308.324
304.529
202.954
256.396
314.682
331.125
268.246
67.0494
65.3903
348.472
224.448
341.279
94.6715
87.6173
315.467
258.538
169.071
340.96
53.4982
293.644
290.145
287.236
134.013
348.541
309.96
239.109
231.237
309.747
352.068
311.637
208.789
20.4153
18.3062
339.635
121.895
315.553
350.058
347.684
292.604
311.835
328.601
179.188
55.9491
64.7966
257.707
254.002
340.843
326.263
120.882
352.415
210.758
32.8744
263.341
264.606
208.712
280.867
278.91
48.2165
102.909
78.5763
276.012
279.049
208.758
189.774
338.566
331.387
251.091
350.23
295.021
252.05
117.778
147.996
320.056
319.48
24.2362
218.4
333.805
98.3328
184.552
336.74
310.575
279.209
210.476
349.844
297.605
140.967
215.906
226.087
332.401
273.216
267.063
190.554
349.533
221.837
55.2552
348.901
243.693
204.845
305.11
279.503
287.227
330.417
330.721
40.0749
342.561
171.147
49.4785
140.779
15.4207
350.747
161.867
245.839
13.5674
339.349
315.775
185.935
297.417
266.631
350.645
244.901
33.6669
271.68
279.027
27.9295
313.051
136.685
349.793
344.066
354.407
355.814
335.22
342.207
328.101
326.801
316.274
334.721
337.359
241.84
336.528
336.154
325.187
42.5449
45.25
339.639
322.739
324.303
313.127
293.395
292.384
345.797
292.043
322.607
163.805
241.028
243.928
51.1492
348.742
182.857
32.6926
29.0918
97.3772
237.503
350.672
347.823
358.098
291.564
249.188
176.101
340.678
289.651
344.959
341.661
341.068
341.014
206.049
348.77
205.027
338.024
336.582
296.804
49.6173
354.831
225.148
222.551
314.658
324.978
213.078
216.567
354.848
137.101
343.299
342.682
162.544
122.874
272.842
346.156
346.684
349.367
349.294
352.448
352.04
246.989
288.998
329.855
328.944
143.634
107.872
294.548
301.885
345.452
247.361
323.958
352.228
224.679
337.483
349.681
349.156
349.325
316.952
355.416
185.317
178.483
121.441
338.61
339.382
316.161
346.795
261.81
307.45
261.647
215.332
306.077
307.468
186.013
187.389
193.031
288.114
290.954
305.388
351.909
152.769
41.6096
337.121
357.031
137.164
141.908
342.218
288.388
291.481
315.062
277.1
280.97
349.575
116.595
336.588
336.241
344.855
326.867
327.915
348.2
328.936
173.437
350.488
99.1802
335.829
102.853
120.582
348.64
330.857
331.986
235.566
349.798
331.619
179.97
233.889
324.418
349.052
224.286
152.622
40.1342
309.538
291.409
177.471
349.171
314.944
262.711
265.439
243.115
335.621
131.692
309.086
278.633
354.031
354.211
306.968
305.288
340.778
349.733
168.114
238.037
337.068
173.647
163.554
297.714
349.904
338.479
203.471
280.404
350.793
347.978
254.032
309.091
310.218
176.954
259.103
356.942
119.574
345.716
147.875
238.472
323.789
251.348
330.456
349.481
349.818
356.727
153.313
339.343
265.092
328.942
329.293
43.78
280.507
294.335
342.969
330.463
134.336
322.5
228.579
158.555
318.923
79.5264
237.154
240.265
301.817
263.598
346.371
85.6567
349.262
173.401
354.703
341.151
201.751
198.686
346.397
93.0146
288.27
357.946
349.316
348.747
340.39
350.706
330.569
103.389
338.115
342.962
355.513
235.591
232.568
348.181
329.757
329.865
111.266
353.869
276.763
111.509
233.469
352.601
184.321
352.712
347.632
346.821
348.084
252.235
339.871
53.3799
180.845
303.398
192.783
128.702
65.8022
342.806
261.012
347.525
98.3764
358.195
220.934
280.831
56.5154
321.05
160.462
345.181
337.225
348.284
114.123
179.104
312.807
341.367
340.908
237.945
210.808
215.91
221.475
321.825
289.686
272.074
321.844
230.455
343.281
311.301
90.8683
313.217
334.714
335.408
214.838
248.097
252.752
342.137
279.457
353.802
278.289
279.485
339.576
322.882
325.841
31.5598
313.456
311.955
195.944
281.309
270.859
304.065
179.514
354.809
213.822
322.165
260.534
255.699
334.134
202.178
350.277
353.576
327.599
328.498
333.38
331.843
346.189
356.406
338.361
289.452
339.583
128.894
351.298
331.137
274.838
341.078
332.612
276.01
89.922
210.938
307.267
301.423
174.57
169.847
280.587
348.939
336.233
329.368
317.489
338.712
225.34
302.048
153.706
346.564
326.48
322.977
305.151
348.585
336.726
337.775
230.093
230.58
66.9254
330.689
303.744
323.216
186.057
246.387
350.032
357.689
357.002
342.377
331.33
332.599
331.49
158.629
270.917
157.587
260.367
349.553
348.101
353.667
173.682
338.607
142.899
233.658
84.2298
196.445
284.928
155.291
272.297
345.698
190.264
328.908
348.488
145.823
159.234
354.927
317.306
149.83
340.656
355.009
355.215
294.453
286.069
145.136
185.364
340.421
331.016
341.773
316.669
339.535
190.461
280.238
331.556
348.704
129.82
180.212
342.322
226.632
136.033
345.316
344.755
208.588
349.962
345.161
177.584
355.184
238.127
154.743
181.164
350.019
224.176
161.654
304.089
309.666
307.302
327.499
328.077
350.597
261.901
358.377
324.127
351.002
304.363
342.328
112.98
354.756
332.099
162.52
343.074
263.732
345.861
345.738
193.398
349.839
185.598
184.687
171.278
171.025
346.623
317.432
319.064
87.0481
193.071
350.001
350.082
328.385
310.427
281.312
145.043
348.404
349.601
338.704
330.229
114.159
266.983
341.256
339.213
74.7774
276.872
336.879
343.878
332.754
331.45
169.589
181.689
344.194
344.887
338.466
41.4188
96.0912
199.039
344.318
307.266
355.368
357.494
113.957
92.2593
227.038
358.369
314.672
301.477
287.113
328.538
307.044
221.361
333.719
348.882
302.379
264.266
266.784
345.027
270.826
271.108
356.53
169.722
287.713
300.05
315.296
275.671
347.733
174.813
303.979
329.487
118.145
349.919
271.399
304.479
348.346
135.829
337.565
347.215
118.467
231.46
347.819
352.153
288.333
310.948
203.326
342.406
56.9265
47.3376
344.048
310.919
348.568
350.797
169.65
277.654
341.674
347.308
277.286
212.75
351.39
280.391
36.0613
30.4957
353.016
307.437
309.035
231.006
252.21
100.847
335.701
167.03
286.878
148.454
336.316
327.841
345.98
172.068
205.513
267.613
184.771
338.196
96.684
345.87
269.462
348.869
330.128
299.037
282.935
43.5342
166.357
176.025
207.666
93.6865
211.517
345.853
341.643
273.746
274.623
355.848
245.2
298.2
296.031
347.373
157.486
148.394
314.949
304.841
340.61
312.279
338.266
336.902
289.347
299.953
110.286
112.563
208.915
280.799
352.624
200.282
297.893
344.996
318.778
294.216
294.737
195.076
298.016
249.992
345.852
333.602
309.027
350.941
314.754
243.123
18.7127
357.461
342.733
61.0834
309.626
133.806
354.873
98.5847
255.995
341.732
66.9502
301.984
329.322
347.558
348.86
348.718
273.897
351.376
261.207
338.33
336.724
52.8112
347.132
251.355
337
346.629
118.001
198.74
288.162
336.093
350.828
347.04
283.464
281.823
325.898
38.5535
334.345
343.122
212.842
344.376
192.26
273.153
23.3369
333.62
141.383
311.11
204.461
355.159
341.024
329.997
207.19
214.445
326.555
92.3154
152.515
129.877
127.548
245.851
323.915
234.679
217.194
222.649
170.807
332.816
332.516
206.126
329.329
350.149
39.6915
349.073
314.653
309.852
318.655
337.54
341.734
331.476
331.825
210.512
335.653
320.75
330.982
302.569
299.6
301.271
150.836
272.54
274.045
341.721
148.08
233.701
278.898
184.986
178.103
269.285
114.074
333.657
226.484
305.319
303.972
221.517
317.414
145.105
269.639
349.596
144.136
352.833
191.193
180.411
264.094
356.218
269.886
346.517
345.525
311.808
271.298
335.221
345.83
307.378
40.2264
146.196
304.557
339.186
326.629
324.292
316.271
131.461
343.074
279.16
341.678
200.613
346.554
272.239
298.41
301.785
304.003
310.903
308.872
307.553
317.11
103.928
313.204
26.8395
344.351
344.047
343.622
285.618
315.224
279.997
353.498
330.848
327.95
310.626
91.1389
344.879
147.772
338.895
355.716
294.863
295.28
216.628
23.4958
300.76
161.559
344.607
347.961
348.672
349.376
287.318
287.942
355.303
349.883
329.154
358.495
340.72
351.237
237.923
246.571
31.7613
221.58
92.3068
332.834
104.06
346.692
208.06
350.363
351.203
344.127
333.984
126.715
297.952
276.793
340.872
247.295
342.615
211.117
223.052
273.077
57.0122
345.306
119.83
119.07
291.135
350.774
344.07
186.448
264.534
317.438
256.13
292.988
141.039
82.16
350.872
259.38
286.436
216.257
207.569
204.497
294.971
356.97
353.167
293.793
146.826
198.016
330.561
350.985
350.901
101.102
103.863
348.016
347.457
350.993
251.335
265.947
294.536
98.9536
197.581
337.674
197.12
197.58
333.847
303.697
275.395
275.619
328.957
305.765
321.252
82.979
179.166
227.528
224.433
339.118
214.574
348.338
275.41
266.943
316.951
49.9369
294.813
152.537
309.743
330.432
33.1721
28.0744
342.986
92.3301
350.343
56.1324
295.238
324.767
351.583
343.559
231.721
317.114
214.668
328.44
319.378
321.563
225.135
220.042
350.68
74.2259
155.111
350.922
355.488
352.968
338.31
33.8525
224.27
226.865
98.76
328.412
276.808
300.848
313.856
128.313
311.121
192.782
201.672
355.188
182.884
328.598
295.13
188.495
170.431
342.649
137.006
95.3011
345.334
278.168
339.277
327.305
46.3598
261.726
220.847
337.479
335.07
336.916
328.794
345.277
207.429
332.117
174.117
272.959
330.54
299.728
208.52
20.2124
296.475
343.354
358.83
290.248
293.551
94.4764
333.231
290.579
211.118
267.537
164.423
315.923
332.658
332.805
299.137
269.449
343.908
333.248
202.578
203.975
145.745
96.8728
278.305
331.368
319.055
223.905
287.547
331.183
196.358
343.792
173.443
58.9119
197.249
342.418
179.381
315.714
284.971
248.648
311.68
285.921
284.13
260.891
252.317
289.148
49.286
342.51
345.743
146.562
349.182
139.882
175.602
233.869
357.734
336.163
100.105
83.4393
274.53
325.861
330.625
308.854
225.459
122.821
353.371
353.056
27.4597
279.828
115.756
287.082
340.604
339.593
333.242
320.046
339.965
225.772
322.816
303.354
303.497
162.664
266.118
305.162
344.908
225.481
266.556
267.301
219.415
224.579
222.98
181.283
340.415
346.617
300.885
291.519
274.113
272.283
223.438
257.138
347.676
341.861
318.998
299.941
302.865
221.489
352.187
351.949
346.742
220.229
296.485
298.649
298.042
301.332
97.4112
337.36
347.504
73.0467
62.5471
308.297
348.025
347.4
218.321
342.804
307.882
125.975
305.061
310.177
350.795
350.579
348.701
344.962
211.759
342.713
199.422
201.673
319.798
264.998
340.622
228.831
304.023
296.589
89.2123
117.979
213.141
64.5373
291.082
56.4875
300.437
342.361
109.852
250.587
249.609
349.657
238.726
327.433
345.762
40.5079
341.569
351.103
354.75
324.927
324.018
244.844
337.006
356.513
238.787
347.439
347.288
199.79
204.651
345.069
230.485
352.414
350.851
348.463
349.005
98.4561
351.063
341.473
64.5823
107.533
264.077
336.686
266.865
317.338
305.656
276.521
320.09
311.087
342.906
342.025
319.568
343.559
357.714
352.719
208.548
349.852
348.078
348.091
247.754
252.387
347.922
289.743
351.045
345.322
310.203
357.825
153.799
242.401
337.362
308.516
309.588
190.578
274.803
299.175
340.605
164.054
313.439
348.767
353.19
353.326
334.607
355.155
347.098
189.002
346.847
331.139
340.845
274.644
354.662
240.319
193.503
347.163
346.875
311.991
46.9819
308.732
230.332
267.516
286.884
288.165
288.022
217.787
297.14
354.642
350.6
265.898
320.578
247.359
238.434
339.703
282.496
279.126
266.517
230.271
331.051
301.003
336.241
356.306
266.796
350.955
349.419
349.369
77.1506
273.554
272.085
47.0292
231.729
186.694
327.111
339.795
342.21
288.238
143.661
147.91
340.825
283.134
351.429
144.403
352.704
352.691
343.606
316.757
233.358
61.234
126.866
255.184
265.924
336.167
89.4253
92.3621
120.186
345.843
346.244
333.876
295.452
239.695
263.828
229.018
199.827
258.689
157.44
309.609
340.609
318.312
317.397
350.904
162.078
244.471
331.286
206.226
199.8
222.13
117.934
313.894
316.073
340.573
211.839
263.777
349.518
349.564
248.814
250.795
107.998
335.877
227.912
55.7975
312.55
203.191
121.787
51.7135
323.683
323.839
143.663
350.591
48.6871
353.575
337.39
190.813
338.027
337.109
286.959
343.988
156.257
188.108
290.522
275.702
353.496
349.462
295.201
104.556
125.707
349.917
350.077
349.747
358.794
197.153
331.102
188.901
187.365
333.433
346.665
343.582
351.654
138.134
161.163
61.4356
268.383
267.449
299.516
311.356
293.641
357.696
122.708
340.862
291.443
357.56
101.854
334.564
226.505
163.669
180.052
86.1604
303.96
311.47
107.114
118.562
66.2823
99.2044
335.961
203.311
162.997
170.904
338.126
94.8257
312.008
353.156
32.9778
340.528
254.098
114.323
279.678
213.446
300.383
284.541
124.155
344.794
336.044
339.119
331.361
350.092
358.694
94.09
292.466
339.129
207.976
185.12
344.022
341.553
318.326
250.35
335.18
347.54
347.369
353.179
338.532
125.95
134.804
286.614
337.079
347.165
347.421
346.767
345.747
291.065
348.365
310.34
312.188
315.203
328.519
97.5909
356.552
337.864
117.45
345.995
203.334
341.951
153.47
348.308
353.303
338.252
187.499
177.278
347.773
355.035
337.609
341.73
63.37
194.837
321.151
313.243
299.628
296.151
340.714
356.937
310.58
347.28
299.056
352.589
314.963
314.683
340.421
278.873
329.838
272.209
333.836
64.9415
173.694
339.914
133.204
258.66
235.394
69.3591
333.316
289.502
349.681
335.789
215.472
23.7582
324.157
339.651
208.806
126.721
183.2
179.987
191.158
262.618
336.628
346.128
285.571
219.026
326.975
348.226
336.689
306.437
336.543
295.618
31.4455
336.131
251.193
245.141
151.446
215.202
358.53
358.645
309.429
49.7449
216.368
345.714
108.421
340.321
346.83
144.373
152.565
62.759
191.578
354.915
346.017
302.944
352.842
329.743
286.28
355.734
341.54
312.082
346.116
177.471
348.029
128.923
132.346
197.312
296.134
349.261
329.37
321.934
86.2196
353.218
348.263
273.188
275.929
251.195
241.539
315.281
317.257
297.733
349.966
128.832
332.943
51.7448
283.968
328.153
110.999
346.366
345.459
339.748
350.636
350.796
349.621
323.03
358.853
310.259
277.101
353.948
304.114
339.909
175.12
195.499
218.872
309.114
357.654
357.78
204.211
281.38
344.073
311.716
335.227
90.2127
151.828
165.977
164.607
357.657
300.194
308.267
253.862
335.122
339.854
348.857
350.317
104.579
99.9015
204.031
184.402
348.904
341.246
298.393
44.4546
344.305
158.144
252.006
21.4583
242.618
235.158
309.341
121.486
321.809
320.645
321.18
307.004
285.317
341.065
347.665
191.456
352.44
355.671
166.447
338.16
183.669
303.038
301.264
339.19
340.039
256.855
324.216
327.739
329.218
165.733
231.708
237.557
334.082
80.5768
326.431
208.294
221.292
327.086
305.847
345.889
39.5353
337.516
335.58
284.072
98.7265
349.906
339.832
286.405
354.978
286.383
341.574
273.15
340.581
187.773
166.797
170.114
347.356
202.489
323.113
298.19
322.896
210.389
248.221
295.099
349.714
349.726
331.939
302.998
320.323
128.426
352.477
268.527
267.844
173.408
342.945
219.223
134.356
294.084
345.838
346.078
327.214
348.015
356.215
285.529
141.734
315.322
51.8167
152.556
284.69
284.401
33.8602
355.322
159.956
67.7069
346.05
191.972
337.206
114.17
248.969
344.197
349.594
356.736
348.228
295.784
346.435
340.95
339.558
349.481
350.609
212.55
286.185
139.172
316.031
194.661
138.537
229.385
189.613
347.914
280.062
283.68
113.336
299.772
351.776
288.44
23.2651
28.7037
351.691
306.053
36.38
229.479
344.582
337.081
145.382
314.596
348.399
349.796
131.561
147.534
57.7488
301.357
301.507
342.655
283.309
283.434
29.2285
102.867
241.06
16.8805
297.957
350.801
100.816
123.585
52.149
351.003
347.07
347.632
352.856
352.527
331.938
185.219
188.33
346.423
346.419
343.38
346.611
357.946
337.043
335.625
282.564
102.574
255.071
265.549
170.048
299.193
345.642
348.069
211.754
288.039
349.114
355.484
358.79
106.543
220.573
310.232
171.002
344.25
348.595
280.261
280.584
223.981
299.811
322.763
214.279
345.992
335.539
329.995
328.141
326.153
58.6593
204.445
212.949
327.163
350.412
282.664
87.429
68.3093
75.0693
199.292
155.967
343.878
347.589
320.257
83.0779
318.824
354.714
349.206
299.333
350.785
357.427
357.7
304.414
340.583
329.698
94.4611
343.374
338.762
203.596
236.114
299.244
318.749
318.124
340.478
284.111
339.012
115.978
227.912
231.429
266.62
267.719
248.367
242.256
206.048
277.235
98.6747
109.37
355.029
352.795
353.258
352.611
37.55
33.6135
328.797
319.478
268.035
176.189
150.705
327.193
275.081
309.906
334.509
17.4341
127.175
266.858
311.908
312.646
271.239
348.102
351.903
17.8843
19.6484
348.492
121.523
336.901
215.412
167.249
283.973
335.517
315.916
188.938
192
348.603
310.103
332.318
96.5326
352.41
193.515
196.649
338.361
264.083
331.609
313.851
313.054
150.817
215.066
98.8037
46.8778
47.1893
44.371
349.435
349.443
304.42
311.106
339.099
343.578
344.246
292.599
253.596
46.0612
350.651
346.617
271.184
293.066
292.611
176.421
298.778
327.615
226.558
332.162
344.256
351.956
340.688
15.4998
252.974
358.812
316.842
314.177
294.768
321.153
321.552
216.07
139.26
320.309
250.216
306.831
309.812
335.505
268.228
297.999
269.429
264.643
206.542
347.343
330.869
348.779
352.155
97.0791
319.172
182.699
195
321.341
258.662
334.912
297.186
194.268
225.799
37.8891
214.444
159.1
350.418
336.511
343.319
29.4221
26.2014
349.753
297.884
155.98
310.641
321.035
316.074
356.326
338.742
225.719
241.314
246.076
358.39
353.208
340.439
340.629
328.052
325.472
204.714
255.601
207.233
296.51
308.525
295.217
350.859
344.49
349.685
349.33
342.457
350.268
94.2614
262.547
272.837
333.342
332.685
335.984
100.453
191.939
262.878
268.141
63.4667
248.805
154.959
302.794
200.619
202.722
186.786
343.787
349.182
352.508
344.79
328.954
226.154
221.878
315.479
319.047
183.592
100.46
108.838
323.747
238.313
238.402
104.25
112.643
343.122
135.691
140.174
170.717
340.68
324.389
45.0756
168.665
319.715
311.58
213.662
237.897
295.95
348.528
76.8427
238.439
284.71
59.3381
325.115
329.106
286.663
307.541
351.918
351.861
336.082
215.186
182.254
242.325
312.854
343.71
202.538
271.157
338.581
320.014
76.7244
209.42
278.869
209.906
100.841
276.641
174.002
317.514
291.27
351.127
273.178
331.445
342.365
265.627
296.483
151.545
144.183
206.189
273.29
243.97
53.7236
319.09
301.451
313.231
50.1303
285.589
327.563
353.923
353.644
341.548
169.8
313.769
91.9893
82.897
287.759
336.183
345.522
345.493
346.506
337.045
336.672
327.557
223.113
349.697
335.276
285.907
302.751
351.42
349.17
329.339
334.619
278.338
298.323
336.06
350.711
88.1513
231.91
32.6556
57.0383
54.5503
311.818
314.519
314.793
317.503
325.601
71.3691
320.365
108.368
108.287
266.299
226.088
357.09
247.414
337.961
245.917
39.2809
315.077
177.575
333.022
325.662
351.147
350.48
257.828
292.227
348.662
166.827
233.184
285.993
223.68
99.7229
86.6437
309.836
333.846
341.768
333.209
298.441
326.595
44.9078
356.02
356.167
98.1069
348.819
59.7045
137.489
348.121
349.476
326.09
325.243
339.763
273.179
272.851
349.69
346.943
347.113
300.268
293.562
352.599
352.667
343.51
299.112
102.228
307.053
340.683
327.063
84.0932
291.079
299.135
122.868
271.273
259.555
293.128
186.45
343.985
338.043
339.443
21.8393
342.377
349.328
83.0155
86.5373
226.786
243.938
245.112
341.289
296.869
223.708
338.749
110.32
324.507
93.2045
289.173
288.451
217.598
210.691
347.727
326.469
324.934
317.973
255.609
213.697
354.581
198.811
336.32
352.643
320.95
94.9099
329.22
333.018
322.674
239.715
20.3965
351.163
269.115
354.982
42.4711
358.504
110.547
283.335
266.446
102.956
320.309
350.532
121.57
133.348
111.599
250.905
135.58
159.647
102.925
219.742
345.2
349.507
286.073
77.4544
81.4016
174.313
284.791
340.344
353.357
353.662
211.515
298.04
105.084
108.859
111.734
358.42
332.595
312.243
335.836
349.486
349.491
301.937
304.881
203.708
206.627
130.94
314.062
345.624
345.525
348.843
99.9661
287.768
286.844
339.435
283.015
74.8195
284.98
318.123
217.333
340.167
334.063
215.754
270.3
119.449
152.397
233.935
229.86
194.873
271.066
341.904
338.709
13.5589
278.95
134.089
314.324
348.294
351.661
349.871
57.2744
331.078
87.818
341.774
350.186
349.634
186.795
226.411
276.799
344.275
189.034
341.941
357.633
224.83
226.145
301.778
335.765
355.419
357.287
307.448
246.953
79.3288
84.9769
331.042
345.732
213.991
356.511
350.289
350.374
317.796
351.463
207.472
206.917
350.296
299.771
337.568
98.763
305.92
166.358
260.754
259.311
159.411
352.691
215.629
338.796
337.714
332.195
331.346
343.916
344.377
217.653
356.934
330.754
348.379
274.263
339.548
304.019
302.015
227.116
344.173
69.0459
81.8217
158.565
203.089
209.58
307.648
311.495
312.406
327.999
255.802
292.182
274.169
232.81
330.996
348.747
350.791
155.867
128.087
298.227
154.519
98.2443
317.915
219.378
311.639
175.144
322.599
332.503
24.6293
250.467
29.7252
98.286
338.173
303.287
251.766
255.411
350.175
326.89
327.277
330.147
348.911
255.513
350.489
341.312
339.983
345.986
257.007
349.672
341.756
350.124
346.941
203.627
2.75089
350.897
312.089
293.218
316.875
337.092
276.266
185.289
284.471
287.162
172.954
261.542
347.941
212.46
320.919
226.269
221.252
286.887
102.626
221.142
125.984
282.851
266.748
173.904
346.366
208.808
348.088
314.64
215.934
259.808
356.085
94.4943
348.755
294.566
329.08
322.128
318.739
267.285
267.435
341.209
212.414
214.075
356.211
79.3591
325.111
348.893
303.085
295.414
339.759
352.691
127.674
352.695
342.62
289.971
292.928
315.625
299.515
342.402
269.809
78.697
329.213
329.269
333.425
238.735
289.382
325.584
345.295
349.008
348.791
324.216
9.77662
345.93
346.77
293.71
119.971
331.385
335.322
171.381
340.408
173.685
176.516
307.193
349.63
195.947
234.398
238.712
53.0397
323.954
323.494
349.988
248.896
204.814
78.943
317.574
342.026
23.4519
284.015
350.817
304.486
354.872
159.25
353.3
345.34
303.644
302.086
185.323
163.038
232.33
349.167
245.008
223.362
183.568
296.954
177.458
343.28
137.915
299.77
308.443
307.04
276.952
164.612
137.095
272.738
271.625
271.03
348.103
164.146
299.452
338.23
228.756
49.2763
64.2107
100.519
163.037
319.077
313.146
312.089
326.636
111.993
333.586
334.925
255.92
187.84
271.329
353.144
56.8009
342.541
243.999
357.733
229.012
192.085
254.087
205.664
328.076
26.4153
331.542
245.501
316.72
345.083
323.671
344.437
184.407
143.286
353.139
313.615
121.644
300.445
59.0704
315.548
138.468
348.99
349.098
341.28
258.676
197.94
190.779
277.674
277.258
333.593
214.18
347.601
336.759
322.736
103.059
349.095
139.293
329.608
329.999
150.725
31.6577
296.461
237.156
239.366
307.744
349.564
111.11
339.94
331.766
209.674
310.91
337.577
227.622
351.093
318.902
318.707
327.189
343.366
146.608
305.219
350.053
315.834
170.534
348.337
322.77
338.03
333.369
277.597
348.801
202.041
347.266
325.939
164.836
282.174
341.228
348.631
67.8136
71.2381
346.514
259.188
263.415
284.844
289.544
273.461
352.82
284.6
200.16
174.312
273.431
77.3399
21.5091
351.04
117.771
119.998
342.834
344.505
72.8339
142.206
310.692
249.281
245.217
274.286
301.84
303.977
201.302
317.782
305.858
206.938
255.884
271.616
333.953
100.438
320.089
90.8076
334.265
26.1805
337.532
335.169
216.833
58.5609
206.842
164.084
325.196
330.833
244.889
347.547
80.1851
321.674
327.577
322.12
321.563
66.9792
206.589
352.254
126.59
172.969
154.519
175.699
71.6777
340.129
324.77
343.074
286.447
353.046
263.062
322.245
56.6713
288.301
350.549
161.264
316.393
183.155
355.389
355.375
192.403
331.64
228.412
344.538
288.137
350.044
199.967
328.698
304.061
77.3489
232.503
233.999
158.792
329.952
315.99
173.647
226.055
358.109
332.82
274.406
306.794
329.531
349.973
350.632
334.709
239.393
355.276
357.732
289.99
127.562
134.228
351.087
297.545
349.083
339.646
345.938
308.4
340.111
345.236
293.056
294.193
328.31
69.2547
293.675
253.395
230.27
220.212
267.617
266.818
58.306
317.035
331.388
330.27
287.215
286.507
315.338
315.58
280.305
161.372
333.276
102.102
262.662
308.695
340.018
352.318
25.5067
301.51
189.302
340.553
340.304
128.446
315.872
239.708
147.045
325.372
348.437
103.485
330.421
330.431
335.642
356.453
333.582
351.149
353.638
10.2082
351.036
186.571
339.977
256.894
210.023
93.5112
102.906
38.5798
71.9213
254.086
69.5362
331.454
347.775
347.486
352.026
252.763
83.5588
79.2877
309.285
66.4941
203.513
202.063
332.951
347.543
263.674
206.635
344.049
139.031
329.11
338.768
67.4209
295.206
23.7588
23.6639
222.534
278.035
358.574
350.76
313.36
176.634
181.672
336.803
336.109
348.641
98.2954
277.999
165.29
350.726
290.844
196.462
276.559
278.222
307.374
268.235
357.053
357.931
97.0477
94.4407
349.504
85.6701
333.401
259.745
327.633
329.512
185.855
123.958
213.493
145.639
218.985
240.226
338.264
182.057
342.777
342.071
129.093
349.323
85.3806
280.59
350.243
315.988
306.914
348.877
351.155
256.132
181.347
172.919
293.797
232.519
327.951
228.119
232.14
350.961
355.26
287.068
331.647
353.422
306.459
188.024
193.161
334.735
270.576
358.279
358.346
70.8511
64.6226
62.3231
21.2532
30.4702
352.789
353.24
318.673
129.918
291.715
72.6964
285.639
285.717
301.549
347.827
96.2313
333.889
338.507
340.325
224.189
283.395
358.285
325.245
341.064
226.463
330.198
194.672
304.829
339.408
39.3371
30.9381
82.8416
320.334
82.9563
349.739
204.76
203.204
89.7629
280.481
176.08
288.403
258.055
348.674
136.943
317.694
352.376
27.6504
295.737
230.09
317.997
353.001
334.1
221.182
341.587
306.338
216.14
45.4383
265.185
344.304
271.208
282.899
46.9885
333.165
333.13
207.711
311.821
191.578
191.357
220.338
329.024
283.73
283.751
272.91
345.773
26.8177
26.1902
95.0479
92.2464
348.116
348.642
355.918
253.051
339.773
186.235
195.055
331.111
109.865
123.985
238.262
346.883
290.206
334.785
321.876
321.202
250.957
309.445
290.772
264.262
263.052
350.824
342.089
299.756
296.462
214.455
348.952
352.53
314.276
56.6604
349.237
300.948
350.441
337.886
323.623
346.282
347.76
328.354
326.72
356.863
333.591
183.239
180.458
273.873
349.537
151.894
232.814
81.3329
88.7777
324.148
349.273
267.205
206.58
351.771
325.731
280.587
284.415
351.815
330.338
350.979
240.432
344.135
171.75
320.855
348.852
343.239
179.03
278.769
306.665
307.439
348.358
231.579
330.508
328.742
326.93
167.02
349.548
347.308
302.57
142.143
346.654
346.531
240.35
346.376
208.641
223.176
344.045
249.092
333.468
347.634
224.377
140.965
241.279
100.145
206.544
213.596
330.907
330.516
332.999
307.243
74.3331
351.128
265.215
348.806
348.727
60.286
173.267
349.967
302.883
58.0416
329.388
349.139
349.143
173.809
348.081
308.914
284.658
195.384
284.796
350.08
202.21
349.589
342.9
327.896
299.334
349.085
17.5368
280.846
284.18
343.584
342.749
352.818
81.1408
67.7487
106.527
316.611
349.015
259.049
220.064
342.937
343.386
300.622
338.471
339.111
312.193
349.306
336.059
242.856
275.33
278.655
293.096
340.613
111.047
168.319
341.324
205.896
190.567
129.079
117.005
99.3637
341.712
341.658
239.857
339.797
300.249
213.894
350.05
290.641
294.033
52.8572
347.553
348.1
241.805
346.571
162.446
201.204
211.038
331.056
343.567
92.4637
192.724
291.503
14.3165
111.038
243.715
181.008
288.927
353.162
149.641
260.646
255.497
212.858
321.592
319.75
340.756
240.749
244.615
275.591
341.536
195.42
193.905
290.097
226.719
227.995
358.972
350.303
89.1152
79.1106
324.232
354.501
115.405
333.542
348.612
332.076
317.808
121.725
344.175
327.262
69.3375
349.237
293.777
319.944
143.267
154.428
253.48
339.332
201.127
293.142
338.792
339.537
341.297
305.617
348.454
75.5148
318.443
292.325
262.261
287.946
289.021
317.825
332.046
332.445
333.397
207.367
216.855
345.334
85.4609
286.661
343.009
352.347
359.108
276.84
306.418
305.485
55.7742
159.348
149.213
303.712
320.079
318.075
355.535
314.076
348.133
321.783
325.673
295.412
283.682
169.148
51.4738
257.45
262.071
239.643
121.931
125.728
347.872
30.1233
351.661
333.918
341.043
335.438
97.8236
306.572
340.381
340.122
315.644
309.05
176.959
89.755
320.974
309.848
306.669
292.503
30.7683
179.301
150.703
322.812
335.909
326.476
339.898
340.219
258.986
336.529
341.773
224.613
305.633
230.027
270.322
273.838
305.55
188.194
302.224
302.495
297.385
62.8712
133.789
282.062
286.287
187.216
190.179
319.636
346.356
314.231
314.546
354.14
69.3795
334.797
37.5133
342.919
316.726
340.307
321.806
316.345
348.699
53.6007
297.66
252.499
251.73
286.057
339.417
163.307
297.726
229.454
146.169
355.451
354.407
285.677
209.126
206.952
67.7192
292.767
237.011
242.64
266.657
53.1635
56.7757
191.288
299.539
118.832
106.241
263.659
332.144
200.402
119.53
343.427
238.591
314.413
348.07
340.634
94.0273
339.009
351.677
341.253
199.776
229.96
348.195
348.598
340.985
84.953
200.219
178.822
317.918
336.375
347.838
306.601
348.478
322.609
327.162
213.167
349.35
314.252
40.1257
35.6003
328.093
351.839
44.4008
312.007
335.876
335.434
217.381
347.749
338.209
241.939
326.776
345.302
345.117
257.184
352.545
340.032
312.256
358.292
125.316
339.271
271.086
232.168
237.091
349.441
299.477
333.303
6.36635
316.816
312.954
265.001
343.697
263.032
261.117
349.657
255.15
351.35
230.549
227.764
352.208
99.8009
53.198
60.3467
348.025
162.512
38.7382
331.753
65.849
222.562
222.323
325.954
334.582
346.837
343.666
343.808
310.193
325.714
322.6
353.829
216.533
300.027
342.355
319.444
306.622
258.287
318.001
343.14
122.796
232.928
266.173
197.714
69.6418
340.708
340.788
310.045
354.194
344.764
266.387
334.958
285.523
287.903
311.166
348.649
252.151
174.115
185.333
168.087
107.431
105.525
106.987
194.726
191.946
329.818
263.084
173.38
174.483
345.924
189.058
187.595
326.733
293.492
240.986
249.241
248.953
349.648
219.777
214.56
209.134
240.225
323.331
348.827
329.812
347.003
260.375
297.039
275.78
140.135
332.093
203.629
207.781
347.936
216.696
344.728
348.084
248.14
348.272
344.465
343.929
263.98
80.0355
284.844
283.014
150.142
159.11
339.25
321.476
336.419
336.122
253.069
74.5514
301.676
172.609
289.927
306.564
334.565
348.009
102.7
357.623
109.586
339.436
348.799