/*--------------------------------*- C++ -*----------------------------------*\
  =========                 |
  \\      /  F ield         | OpenFOAM: The Open Source CFD Toolbox
   \\    /   O peration     | Website:  https://openfoam.org
    \\  /    A nd           | Version:  7
     \\/     M anipulation  |
\*---------------------------------------------------------------------------*/
FoamFile
{
    version     2.0;
    format      ascii;
    class       surfaceScalarField;
    location    "10";
    object      phi;
}
// * * * * * * * * * * * * * * * * * * * * * * * * * * * * * * * * * * * * * //

dimensions      [0 3 -1 0 0 0 0];

internalField   nonuniform List<scalar> 
19623
(
-6.52076e-07
6.99205e-07
-4.71293e-08
9.69202e-07
-7.05979e-07
-2.63223e-07
1.36231e-07
-6.43751e-07
5.0752e-07
-6.59363e-07
6.62977e-07
-3.61416e-09
-5.30389e-07
6.54145e-07
-1.23756e-07
-5.00362e-07
8.16153e-07
-3.15791e-07
2.20522e-07
-7.20884e-07
-1.2534e-07
-5.24982e-07
6.50322e-07
-6.19162e-07
4.54489e-07
1.64674e-07
1.76807e-06
-9.03482e-07
-8.64585e-07
1.50549e-06
2.62578e-07
-1.26749e-07
-3.2871e-07
4.55459e-07
-4.46164e-07
7.17095e-07
-2.70931e-07
-2.48785e-07
6.8337e-07
-4.34585e-07
8.58753e-07
-6.67856e-07
-1.90898e-07
6.52153e-07
-2.88182e-07
-3.63971e-07
5.70856e-07
-7.02795e-07
1.31939e-07
3.46973e-07
2.78027e-07
3.27483e-07
4.07053e-07
-7.34536e-07
6.14406e-07
-2.86923e-07
-8.85417e-07
5.73784e-07
3.11634e-07
-6.40757e-07
-2.15688e-07
8.56445e-07
-5.3867e-07
-1.79096e-08
5.56579e-07
-9.87719e-07
5.42149e-07
4.4557e-07
6.49526e-07
-6.35251e-07
-1.42756e-08
-1.40313e-07
7.89839e-07
-6.92701e-07
7.50648e-08
6.17636e-07
-3.56051e-07
-6.31668e-07
-6.52973e-07
5.26224e-07
-9.3119e-08
-5.65121e-07
6.5824e-07
-6.2205e-07
5.28931e-07
-2.55443e-07
6.56598e-07
-4.01155e-07
-6.1069e-07
4.78719e-07
1.31972e-07
6.31975e-07
2.73129e-08
-6.59287e-07
8.57278e-07
-2.25304e-07
5.73519e-07
2.85234e-07
6.94254e-07
-3.90386e-07
-3.03868e-07
-4.30789e-07
8.59318e-07
-4.28529e-07
-9.90442e-07
1.12077e-07
8.78364e-07
-7.48888e-07
4.13879e-07
3.35009e-07
2.56264e-07
3.10435e-07
-5.667e-07
-5.05992e-07
7.62256e-07
3.54939e-07
-9.75906e-07
6.20967e-07
5.78533e-07
-7.50578e-07
1.72045e-07
5.2468e-07
3.54144e-07
-8.78824e-07
7.52365e-07
-8.52181e-07
9.9816e-08
7.96476e-07
-3.55683e-07
-4.40793e-07
-1.64372e-07
9.86354e-07
-8.21982e-07
4.66831e-07
-6.31203e-07
7.67674e-07
-4.77885e-07
-2.8979e-07
5.85674e-07
-6.66157e-07
8.04832e-08
1.00744e-07
4.84931e-07
-3.37039e-07
7.47898e-07
-4.1086e-07
7.36561e-09
5.20854e-07
-5.2822e-07
6.37837e-07
-3.97862e-08
-5.9805e-07
1.02384e-07
-5.30444e-07
4.2806e-07
2.81323e-07
-4.82982e-07
2.01659e-07
-6.64694e-07
6.03213e-07
6.1481e-08
2.48005e-07
3.89832e-07
5.96769e-07
-7.47068e-07
1.50299e-07
7.3184e-07
-6.43408e-07
-8.84325e-08
2.18047e-08
-5.42916e-07
5.21111e-07
-6.87027e-07
2.47514e-07
4.39513e-07
-5.81564e-07
-2.42503e-07
8.24067e-07
6.06357e-07
-8.79743e-07
2.73385e-07
8.762e-07
-2.69842e-07
3.84329e-07
2.67824e-07
6.65839e-07
-5.97717e-07
-6.81222e-08
-5.11067e-07
-1.93225e-08
7.65529e-07
-4.29586e-07
-3.35942e-07
6.41453e-07
4.89876e-08
-6.9044e-07
5.38376e-07
1.76443e-07
-7.14819e-07
8.3908e-07
-8.3908e-07
4.03608e-07
2.62232e-07
7.23668e-07
5.27935e-08
-7.76462e-07
-4.1375e-07
6.43188e-07
-2.29438e-07
4.32361e-07
1.94921e-07
-6.27281e-07
5.40518e-07
-3.18298e-08
-5.08688e-07
-4.08258e-07
6.63231e-07
-2.54972e-07
-6.56617e-07
2.48358e-07
-6.07964e-07
-1.26868e-07
7.34831e-07
-1.16295e-07
-6.06707e-07
7.23002e-07
7.81052e-07
-9.90046e-08
-6.82047e-07
2.37255e-07
5.43797e-07
6.18198e-07
1.0547e-07
1.33749e-06
-1.07684e-06
-2.60651e-07
4.47108e-07
8.90379e-07
-7.59069e-07
7.38573e-08
6.85212e-07
6.67436e-07
1.51809e-08
-6.82617e-07
1.35933e-07
5.31503e-07
5.16538e-07
-5.28695e-07
1.21576e-08
5.45632e-07
-4.58644e-07
-8.69883e-08
6.71842e-07
-5.84399e-07
-8.7443e-08
5.1028e-07
1.61562e-07
4.36685e-07
1.67525e-07
-6.0421e-07
-1.82438e-07
5.63557e-07
-3.81119e-07
-7.62919e-07
-2.63449e-09
7.65554e-07
-3.07142e-07
-3.03548e-07
3.1125e-07
-4.93687e-07
4.33816e-07
2.62874e-07
-6.9669e-07
8.07035e-07
-3.73219e-07
-5.87011e-09
6.71501e-07
-6.65631e-07
-1.36382e-07
6.60251e-07
-5.23869e-07
5.72773e-07
1.64777e-07
-7.3755e-07
-6.92383e-07
1.30994e-07
5.61388e-07
-3.143e-08
3.17616e-07
-2.86186e-07
-6.54971e-07
1.22404e-07
5.32567e-07
5.52633e-08
1.06813e-06
-1.12339e-06
1.20799e-07
-5.34549e-07
-9.90442e-07
-5.35846e-07
-3.87932e-08
5.74639e-07
-5.05437e-07
9.78097e-07
-4.7266e-07
6.31759e-07
-1.1372e-06
2.79193e-07
-5.57387e-07
2.78194e-07
-4.40318e-07
3.03936e-07
-2.63684e-07
-6.23569e-07
8.87253e-07
-3.98232e-07
4.05598e-07
7.20362e-07
-7.41639e-07
2.12769e-08
5.19741e-07
1.40405e-07
-6.60146e-07
2.3007e-07
-5.36714e-07
3.06644e-07
-2.90508e-07
5.20577e-07
-1.08793e-06
1.08793e-06
-8.79173e-08
6.52881e-07
-5.64964e-07
1.59556e-07
5.72218e-07
-7.31774e-07
6.0213e-07
-7.74845e-07
1.72715e-07
8.39611e-07
-2.37481e-07
-5.73021e-07
-3.12397e-07
4.59179e-07
1.66343e-07
-6.25521e-07
1.53422e-07
3.62418e-07
-5.15839e-07
4.44873e-07
-1.63551e-07
-9.30951e-07
-4.09776e-08
-7.73083e-07
-3.45907e-08
5.83355e-07
1.07738e-07
-6.91093e-07
-9.23056e-07
6.22188e-07
3.00868e-07
-4.24147e-07
7.03341e-07
3.68738e-07
-6.68627e-07
2.9989e-07
6.16693e-07
-1.84332e-07
2.07451e-07
3.67904e-07
-5.75355e-07
4.72223e-07
2.28758e-07
-7.00981e-07
-1.77738e-07
6.14423e-07
-7.31756e-07
-2.39536e-07
-8.37299e-07
-9.31086e-07
6.9155e-07
-5.69481e-07
-3.66712e-07
9.36193e-07
4.599e-07
-1.02938e-06
-2.61187e-07
-4.08563e-07
6.69749e-07
-8.22282e-07
1.97855e-07
6.24426e-07
7.68781e-07
-4.83346e-07
-2.85435e-07
-3.72474e-07
-1.65079e-07
5.37553e-07
7.47305e-07
-1.66914e-08
-7.30613e-07
-4.0924e-07
-4.45936e-07
8.55175e-07
-4.70194e-07
-4.09548e-07
-5.01174e-07
3.09793e-08
-8.44503e-07
1.9153e-07
-5.38694e-07
5.9111e-07
-5.24166e-08
3.84182e-07
-2.81798e-07
-5.96577e-07
1.0516e-06
-4.55022e-07
1.49435e-07
6.90632e-08
-2.18499e-07
5.02417e-07
4.66785e-07
6.00915e-07
1.21963e-07
-7.22878e-07
-2.49098e-07
8.50013e-07
3.94504e-07
-8.25294e-07
-5.54321e-07
3.18316e-07
2.36004e-07
-3.27815e-07
7.05019e-07
-3.77204e-07
4.02792e-07
3.25413e-07
-7.28206e-07
8.25661e-07
-4.18949e-07
-4.06712e-07
-1.06806e-07
-4.50673e-07
5.57479e-07
-5.81564e-07
6.09074e-07
2.16587e-07
-7.95144e-07
2.30635e-07
5.64509e-07
-7.62243e-07
-4.14672e-07
1.17691e-06
5.88472e-07
2.57232e-07
-8.45705e-07
8.21879e-07
-2.33407e-07
8.85793e-07
-2.44341e-07
4.3374e-07
-8.35601e-08
-3.5018e-07
4.99296e-07
2.39343e-08
-5.2323e-07
2.59458e-07
-8.00149e-07
5.40691e-07
5.95994e-07
-7.94566e-08
-4.50249e-07
-1.63832e-07
6.1408e-07
6.72092e-07
-5.1867e-07
-7.28549e-07
1.27042e-07
6.01507e-07
4.68771e-07
7.88461e-07
-1.25723e-06
3.87351e-07
2.37649e-07
6.91552e-07
-4.84101e-07
-7.18332e-07
4.03309e-07
3.15022e-07
1.10244e-07
-9.26736e-07
8.16491e-07
-5.08406e-07
6.18651e-07
-1.05061e-07
6.04357e-07
-3.71296e-07
4.40715e-07
-6.94199e-08
5.45334e-07
2.73624e-07
-8.18958e-07
3.00094e-07
-5.4104e-07
2.40946e-07
4.256e-07
1.20032e-07
-5.02421e-07
4.93467e-07
8.95494e-09
4.31067e-07
-5.07676e-07
7.66096e-08
5.39919e-07
-7.64529e-07
2.2461e-07
-3.50691e-08
3.17017e-07
-2.81948e-07
1.02055e-06
-5.51783e-07
-7.10789e-07
4.09589e-07
3.012e-07
-3.41133e-07
8.35992e-07
-4.94859e-07
4.57942e-07
-6.18175e-07
1.60233e-07
-4.23403e-07
-1.051e-07
5.28503e-07
2.39827e-07
-3.8615e-07
6.37124e-08
3.22437e-07
2.4663e-07
5.21045e-07
-7.39064e-07
4.75381e-07
-1.36595e-07
5.03737e-07
-3.67143e-07
-3.83202e-07
-3.35129e-07
-5.96814e-07
-7.66836e-07
-5.16661e-07
-5.3528e-08
5.70189e-07
-4.24741e-07
-1.62934e-07
5.87675e-07
-4.76319e-07
6.1255e-07
-7.68108e-07
-6.88412e-07
3.84173e-07
2.85483e-07
-6.69656e-07
-7.89147e-07
4.59513e-07
3.29634e-07
-9.59419e-07
9.59419e-07
5.08483e-08
-4.92497e-07
4.41649e-07
-4.97868e-07
1.57241e-08
4.82144e-07
-7.19654e-07
2.02993e-07
-6.42868e-07
-8.83171e-10
-5.73943e-07
-2.32025e-07
-6.60867e-08
5.90767e-07
-1.4178e-07
-5.08071e-07
6.49852e-07
-2.12915e-07
-1.47722e-07
6.19945e-07
-7.5264e-07
4.93451e-07
2.5919e-07
7.70051e-07
-7.57974e-08
4.91269e-07
-1.15573e-07
-3.75696e-07
6.5169e-07
-3.04717e-07
7.15055e-07
-5.09206e-07
-2.05849e-07
-1.90928e-07
-5.37278e-07
7.28206e-07
6.62245e-07
-5.87866e-07
-7.43791e-08
-8.51495e-07
6.73757e-07
-7.97944e-08
-7.717e-07
3.74875e-07
-6.2366e-07
1.65975e-07
-6.16223e-07
-2.63923e-07
-4.28778e-07
-7.99571e-07
1.15451e-06
3.07563e-07
3.36523e-07
-6.44086e-07
-5.11019e-07
8.18581e-07
8.61645e-08
3.92554e-07
1.0189e-06
-4.74585e-07
-5.44316e-07
-3.47972e-08
1.0537e-06
-2.27287e-07
-4.36377e-07
6.63665e-07
8.51656e-07
-5.63284e-07
-2.88371e-07
4.64034e-07
3.87622e-07
7.64629e-07
-8.12588e-08
4.607e-07
-7.54871e-07
2.94171e-07
6.66791e-07
-2.06091e-07
5.49451e-07
-7.72914e-07
2.23463e-07
-5.73217e-07
5.3941e-07
3.38076e-08
5.12376e-07
6.17904e-08
-5.74166e-07
-6.16038e-07
-1.96157e-07
8.12195e-07
7.25162e-07
-3.95986e-07
-3.29176e-07
5.35734e-07
1.89429e-07
4.81734e-07
-5.72564e-07
9.08296e-08
2.81452e-07
2.94011e-07
-5.75462e-07
1.2292e-07
-6.82732e-07
5.59812e-07
-1.15108e-06
2.20133e-07
-8.85719e-07
1.12636e-07
-7.25785e-08
5.57077e-07
-4.84498e-07
-1.1255e-06
7.15219e-07
4.10284e-07
3.96147e-07
-5.5693e-07
1.60784e-07
6.62853e-07
-7.87199e-07
1.24346e-07
-4.04391e-07
-2.13081e-07
6.17472e-07
5.52254e-07
-9.43118e-08
-6.12745e-07
-1.13819e-07
7.26565e-07
1.71254e-07
3.23708e-07
-5.84895e-07
5.97256e-07
7.612e-08
-6.73376e-07
-2.37475e-07
-2.24198e-07
4.61673e-07
7.11025e-07
-3.952e-07
-3.15825e-07
5.07671e-07
2.03353e-07
2.97785e-07
5.41295e-07
3.3271e-09
5.55619e-07
-5.58946e-07
6.19605e-07
-7.62147e-10
-6.18843e-07
-7.35014e-07
7.79993e-07
-4.4979e-08
-5.21659e-07
7.70831e-07
-2.49172e-07
8.19325e-08
-6.03591e-07
5.16173e-07
2.49356e-07
2.64287e-07
2.44478e-07
-5.08765e-07
3.76327e-07
-6.28405e-07
2.52078e-07
-6.53807e-07
3.87774e-07
2.66032e-07
-3.67686e-07
-2.8612e-07
-1.95486e-08
5.92321e-07
-5.66256e-07
4.96403e-07
6.98532e-08
-8.28858e-07
4.90394e-07
3.38465e-07
-3.84601e-07
-4.44257e-07
5.73032e-07
4.45721e-08
-6.17604e-07
-9.39031e-08
-8.19388e-07
9.13291e-07
4.63955e-07
2.73138e-08
3.21044e-07
2.19474e-07
9.65511e-07
-1.11903e-06
1.53521e-07
-5.17005e-07
3.26967e-07
1.90038e-07
-7.03324e-07
7.61826e-07
-5.85016e-08
-5.16289e-07
2.78814e-07
-5.70927e-07
6.29218e-07
-5.82907e-08
1.64008e-07
5.00946e-07
-6.64954e-07
7.08466e-07
-5.44458e-07
-5.39014e-08
-5.71032e-07
6.24934e-07
-6.01394e-07
5.47493e-07
3.96782e-07
-2.72382e-07
-1.244e-07
-4.916e-07
-2.22612e-07
7.14212e-07
6.75801e-07
-5.18395e-07
-1.57405e-07
5.4195e-07
1.33851e-07
-7.39751e-07
-9.7488e-08
8.37239e-07
2.36823e-07
-8.73881e-08
7.2133e-07
-6.81383e-07
-3.99468e-08
-5.90948e-07
9.09971e-07
-3.19023e-07
-5.54462e-07
-1.04901e-07
4.59301e-08
3.50852e-07
-6.05213e-07
3.89569e-08
6.86836e-07
-4.18555e-07
-2.68281e-07
6.53295e-07
-6.55339e-07
2.0442e-09
-5.66412e-07
5.42125e-07
2.42872e-08
6.10018e-07
-2.22668e-07
5.23041e-07
-6.10958e-07
7.24061e-07
-2.0102e-07
-7.41477e-07
-4.76698e-08
-1.97155e-07
-5.63924e-07
7.61079e-07
4.6804e-07
-7.59864e-07
2.91824e-07
-2.79549e-07
5.14653e-07
-2.35103e-07
2.60053e-07
-6.58378e-07
3.98324e-07
8.3895e-07
-2.45587e-07
-5.93363e-07
2.35766e-07
6.03184e-07
-9.7992e-08
6.26824e-07
-5.28832e-07
5.64702e-07
-7.74977e-07
2.10274e-07
-4.3553e-07
4.98394e-07
-6.28646e-08
5.86239e-07
-6.71116e-07
8.48765e-08
-2.81363e-07
-1.97175e-07
4.78538e-07
4.6431e-08
7.00874e-07
9.76711e-07
-5.29322e-07
-4.47389e-07
3.08855e-07
6.93974e-07
-1.25808e-07
-5.68166e-07
4.55029e-07
2.38944e-07
-6.74957e-07
-8.79625e-08
-3.8917e-07
7.26195e-07
-3.37025e-07
2.76237e-07
-6.65406e-07
-1.04754e-07
4.60372e-07
-3.55618e-07
4.39548e-07
2.47288e-07
2.73475e-07
6.54765e-07
-9.2824e-07
5.08922e-07
-2.44636e-07
-5.0533e-07
-1.81696e-07
6.60763e-07
-5.73555e-07
-8.72075e-08
1.12886e-06
-1.71245e-08
-1.11174e-06
2.51013e-07
8.7785e-07
6.26412e-07
-3.05368e-07
7.74134e-07
-4.13329e-07
-3.60805e-07
6.19814e-07
1.54319e-07
-1.00506e-07
5.23722e-07
-4.23217e-07
-5.45983e-07
9.62675e-07
-4.16692e-07
-8.5946e-07
3.13477e-07
-6.41309e-07
5.34503e-07
3.64998e-07
4.03782e-07
6.98896e-07
-6.34805e-07
-6.40916e-08
1.43506e-07
5.5539e-07
4.51803e-07
-6.52154e-07
2.00351e-07
-9.71766e-08
5.01349e-07
-4.04172e-07
-4.75621e-07
3.78444e-07
1.23697e-07
4.95908e-07
-6.33739e-07
5.16699e-07
1.17039e-07
-7.44917e-07
5.88288e-07
1.56629e-07
-7.49177e-07
2.98505e-07
5.05705e-07
-6.29928e-07
1.24223e-07
6.81881e-07
2.88805e-07
5.09679e-07
-7.98485e-07
2.59037e-07
4.93328e-07
8.82846e-08
4.82571e-07
2.76111e-07
3.74124e-07
-6.50235e-07
-4.56448e-07
7.32559e-07
4.51701e-07
-4.8677e-07
7.44747e-07
-5.4305e-07
-2.01696e-07
6.48455e-08
-5.86876e-07
5.2203e-07
8.26756e-07
-7.03835e-07
-8.74171e-07
6.17991e-07
2.5618e-07
3.82437e-07
1.31042e-07
-5.13479e-07
6.89219e-07
-6.32334e-07
-5.68851e-08
8.51937e-08
3.02581e-07
1.10364e-06
-4.84987e-07
-6.1865e-07
-7.97139e-07
2.23197e-07
-7.28764e-07
-1.65775e-07
8.94538e-07
5.93517e-07
-7.37754e-08
4.87613e-07
4.61442e-07
-9.49056e-07
7.10604e-07
-1.70685e-07
7.85356e-07
-3.43931e-07
-4.41425e-07
3.45501e-07
-5.36105e-07
1.90604e-07
3.83534e-07
-6.64897e-07
-5.66815e-07
-7.42424e-07
5.88973e-07
1.53451e-07
9.09831e-07
-6.67587e-07
-2.42244e-07
2.27218e-07
2.60674e-07
-4.87892e-07
7.79542e-07
-3.54228e-07
-4.25314e-07
-7.78999e-07
3.6359e-07
4.15409e-07
-4.38471e-07
-3.40528e-07
-6.14491e-07
-3.99046e-08
6.54396e-07
-7.13496e-07
6.5869e-07
-2.56619e-07
-4.02072e-07
1.18079e-07
6.26668e-07
4.90368e-07
-6.06663e-07
-1.66004e-07
-4.00811e-07
3.24638e-08
-5.43483e-07
-4.00125e-07
-4.80549e-07
8.80674e-07
-4.84837e-07
8.47127e-08
8.93642e-07
-3.27351e-07
-5.66291e-07
-5.37687e-07
-1.49286e-07
6.86974e-07
-5.02415e-07
5.34879e-07
7.22132e-07
-8.89094e-07
1.66962e-07
5.81024e-07
-1.84877e-07
-5.30344e-07
7.53468e-07
-2.23125e-07
1.26014e-07
-5.61543e-07
6.67112e-07
-2.34312e-07
-4.328e-07
7.21695e-07
-5.45825e-08
1.10903e-07
3.41215e-07
-4.52119e-07
8.48616e-07
-5.22895e-07
-3.25721e-07
3.29529e-07
2.06862e-07
-5.36392e-07
5.68477e-07
-1.22184e-07
-4.46293e-07
-1.33403e-07
5.85206e-07
-1.33853e-06
4.87164e-07
8.51364e-07
4.22103e-07
8.28609e-08
-5.04964e-07
-5.94374e-08
6.65904e-07
-6.06467e-07
2.44877e-07
-6.63826e-07
2.52728e-08
-7.17656e-07
6.36909e-07
-1.94139e-08
-6.17495e-07
-4.97379e-08
6.86648e-07
7.06317e-07
-3.65038e-07
-3.41279e-07
4.08658e-07
6.9498e-07
6.62241e-07
-6.46494e-07
-1.5747e-08
-8.19695e-07
3.67859e-07
4.51836e-07
-6.86836e-07
6.86836e-07
-6.75028e-07
2.89686e-07
3.85342e-07
-8.15792e-07
2.19216e-07
-6.32595e-07
8.64261e-07
-2.31665e-07
-8.83671e-08
-3.85742e-07
4.74109e-07
1.50262e-07
5.1282e-07
-6.63083e-07
-4.41173e-07
5.72167e-07
8.18293e-08
-8.21581e-07
1.24209e-07
-6.62878e-07
5.83855e-07
-7.43918e-07
1.60063e-07
-6.29407e-07
4.50067e-08
-4.75207e-07
7.83143e-07
-3.07936e-07
7.18394e-07
-6.45798e-07
-7.25962e-08
-4.36058e-07
1.1331e-06
-6.97042e-07
-4.38386e-07
-3.99816e-07
2.95062e-07
6.37271e-07
-2.27206e-07
-4.10066e-07
-6.35841e-07
6.49143e-08
1.38593e-06
-1.38593e-06
-1.50228e-07
-4.7618e-07
6.26408e-07
-6.93618e-07
4.27602e-07
2.66016e-07
1.51111e-07
-5.94073e-07
4.42961e-07
3.04137e-07
3.54553e-07
-6.21505e-07
1.90098e-07
4.31407e-07
-3.42557e-07
-2.78948e-07
-1.07789e-07
-4.88992e-07
5.96782e-07
-3.11915e-07
8.21031e-07
-5.09116e-07
-2.46171e-07
-3.60251e-07
6.06422e-07
-3.73594e-07
6.48784e-07
-2.75189e-07
5.00459e-07
2.485e-07
-7.48959e-07
5.97047e-07
-1.22827e-07
-4.7422e-07
3.30193e-07
-5.5748e-07
5.93711e-07
1.91197e-07
-7.84908e-07
3.28168e-08
-5.10861e-07
4.78044e-07
1.66332e-07
-1.43864e-07
-2.24679e-08
6.55785e-07
-1.34931e-07
6.23522e-07
-1.42009e-07
-4.81512e-07
-1.41727e-07
-4.22802e-07
5.6453e-07
-6.96548e-07
-1.77622e-07
6.15382e-07
-1.93279e-07
3.42305e-07
-6.02703e-07
2.60398e-07
1.31523e-07
5.04438e-07
-6.3596e-07
6.18286e-07
-4.86763e-07
-5.3678e-07
4.64201e-07
7.16549e-07
-2.27213e-07
-4.89335e-07
-4.75754e-07
-5.01934e-07
-4.21122e-07
4.64979e-07
-9.01036e-07
-6.51859e-07
2.79385e-07
-7.85253e-07
7.64367e-07
2.08861e-08
-4.12205e-07
-2.39654e-07
1.8749e-07
4.29203e-07
6.61591e-07
-4.741e-07
1.15064e-07
4.81983e-07
1.05076e-06
-3.90512e-07
1.94274e-07
3.89081e-07
-2.76884e-07
-8.92579e-08
3.66142e-07
9.11884e-07
-1.01445e-06
1.02566e-07
-6.03179e-07
-1.07609e-07
-6.2944e-07
7.57212e-07
-1.27772e-07
6.15995e-07
-3.55942e-07
-9.01895e-07
9.57159e-07
1.03345e-07
5.589e-07
-2.78682e-07
6.76865e-07
-3.98184e-07
-2.39432e-07
-2.41832e-07
4.81264e-07
-1.73387e-07
3.44647e-07
-1.7126e-07
-6.76861e-07
2.7247e-07
-3.65527e-07
5.42887e-08
3.11238e-07
2.99339e-07
-6.40472e-07
-3.97944e-07
-3.15974e-07
7.13918e-07
-7.38815e-09
3.91718e-07
-5.26064e-07
4.71431e-07
5.46328e-08
-5.96484e-07
6.69505e-07
-7.30203e-08
-4.91347e-07
3.76442e-07
-6.15874e-07
1.01028e-06
-1.84871e-07
-8.25406e-07
-2.3348e-07
-7.25941e-07
-3.73593e-07
-2.41581e-07
6.15174e-07
5.29137e-07
-5.60967e-07
7.99825e-07
-2.31213e-07
-5.68612e-07
2.85184e-07
-5.97101e-07
3.11917e-07
-4.4642e-07
9.36814e-07
-1.14098e-06
6.94558e-07
-1.35935e-07
-2.29592e-07
3.10054e-07
2.78282e-07
-5.88336e-07
2.18747e-07
-7.10347e-07
-8.18105e-07
9.01867e-07
-8.37624e-08
6.31344e-07
-3.56485e-08
-5.95696e-07
-8.1131e-07
6.99524e-07
1.11786e-07
-3.81242e-07
6.81299e-07
-3.00057e-07
5.61689e-07
-4.89982e-07
-7.17072e-08
7.08171e-08
-2.44204e-07
-4.55448e-07
3.54943e-07
-5.24497e-07
6.53993e-07
-1.29495e-07
2.31222e-07
-7.55719e-07
-3.34195e-07
-1.51849e-07
4.86044e-07
9.3965e-07
-7.42635e-07
-1.97015e-07
6.2807e-07
3.1158e-07
2.8967e-07
-5.5057e-07
2.609e-07
9.28859e-08
-4.74687e-07
3.81802e-07
-6.39184e-07
9.22912e-09
6.29955e-07
-3.87088e-07
7.0673e-07
-3.19642e-07
2.46168e-07
-6.33256e-07
3.11828e-07
-6.4884e-07
3.37011e-07
4.56269e-07
-5.15706e-07
4.77404e-07
1.18247e-07
-5.95652e-07
1.11797e-06
-7.43108e-07
-3.7486e-07
-4.57807e-07
-1.77702e-07
6.35509e-07
-8.23346e-07
3.65539e-07
1.66213e-07
-3.78629e-07
2.12416e-07
7.90576e-07
-4.76098e-08
-7.42966e-07
7.93096e-07
-2.51999e-09
-1.69022e-07
-5.13025e-07
4.60388e-07
2.80575e-07
-7.40963e-07
5.85515e-07
-2.09188e-07
1.01732e-06
-2.28859e-07
-1.46059e-07
5.28495e-07
3.63909e-07
4.84706e-07
5.27868e-07
-7.00069e-07
5.40898e-08
6.45979e-07
7.4037e-07
-7.4624e-07
-9.88454e-08
-5.48861e-07
6.47707e-07
-6.60472e-08
-5.73138e-07
6.04172e-08
5.55879e-07
-6.16296e-07
-6.58446e-07
7.18863e-07
6.66202e-07
-4.18683e-07
-2.47519e-07
4.1731e-07
2.48892e-07
5.29519e-07
5.63161e-09
-5.3515e-07
5.5942e-07
1.46897e-07
4.9413e-07
-6.18323e-07
1.24193e-07
-6.95068e-07
4.48897e-07
1.73444e-07
-7.0929e-07
-2.45651e-07
-8.42285e-07
6.47255e-07
-5.04858e-08
-6.59276e-07
7.14841e-07
-5.55652e-08
5.99674e-07
-4.52891e-07
-1.46783e-07
5.9508e-07
2.04745e-07
7.5043e-07
-3.72958e-07
-3.77473e-07
-4.06529e-07
7.69994e-07
-3.63465e-07
8.1591e-07
-6.03255e-07
-2.12655e-07
4.12493e-07
6.04828e-07
-2.3023e-07
-5.18322e-07
7.48552e-07
2.98676e-08
-6.20816e-07
-8.35755e-07
1.11306e-06
-2.77304e-07
-7.24852e-07
-7.12841e-07
3.855e-07
3.27342e-07
2.52028e-07
-7.25491e-07
4.73463e-07
1.61619e-07
4.0279e-07
-5.64409e-07
-8.36686e-08
-5.68407e-07
-7.39086e-07
2.65695e-07
4.7339e-07
6.89472e-08
-3.96762e-07
-2.252e-07
5.10384e-07
-7.5113e-07
8.56712e-07
-1.05582e-07
8.56144e-07
-5.82669e-07
7.32091e-07
-3.04402e-07
-4.2769e-07
-8.22939e-08
-4.12886e-07
4.9518e-07
5.83611e-07
2.77713e-07
-6.12857e-07
5.03219e-07
1.09638e-07
3.47405e-07
-5.90442e-07
2.43037e-07
5.83171e-07
-1.2806e-07
4.53592e-07
-3.25532e-07
-7.28454e-07
6.00393e-07
-7.21919e-07
4.45034e-07
9.17431e-07
-3.27195e-07
-5.90236e-07
-4.65874e-07
5.22754e-07
-5.68799e-08
6.58065e-07
-3.48011e-07
-5.45843e-07
-1.6574e-07
7.11583e-07
6.10374e-07
-7.24194e-07
6.25524e-07
1.06316e-07
2.11304e-07
-5.84898e-07
4.76178e-07
1.84584e-07
3.58821e-07
-7.32132e-07
3.73311e-07
5.55572e-07
3.61859e-07
-4.4674e-07
-2.54119e-07
7.00859e-07
2.76434e-07
-7.23175e-07
1.10402e-06
-6.95361e-07
-6.2821e-08
-7.55284e-07
2.00537e-07
5.45379e-07
9.18927e-08
5.58124e-07
-1.64628e-07
-3.93496e-07
-2.07016e-07
4.88468e-07
4.09693e-07
6.00917e-08
-4.69784e-07
-2.78097e-07
3.51955e-07
3.22828e-07
3.82191e-07
-1.13656e-06
-2.01966e-07
7.42083e-07
-2.53199e-07
-4.88883e-07
6.46943e-07
-4.90554e-07
-1.5639e-07
-8.91904e-07
1.56889e-07
-4.86578e-07
2.48531e-07
2.38047e-07
-5.94647e-07
-1.67596e-07
6.15022e-07
-1.53483e-08
2.48547e-07
2.72253e-07
-5.208e-07
-1.04024e-06
1.04024e-06
-2.18863e-07
6.21656e-07
-5.11547e-07
-1.91248e-07
1.01779e-06
-8.75106e-07
-1.42686e-07
1.11172e-06
-9.3928e-08
-5.53727e-08
-3.85712e-07
-3.53373e-07
2.48487e-07
1.5457e-07
-4.03057e-07
5.34489e-07
-4.03594e-08
-5.68596e-07
5.63392e-07
5.20424e-09
2.32661e-08
-5.91862e-07
6.97617e-07
-8.27114e-07
1.29496e-07
-7.44343e-08
-4.98784e-07
3.78161e-07
-1.29674e-07
-4.73339e-08
-4.98509e-07
-5.77097e-10
6.62817e-07
4.17095e-07
-3.84278e-07
3.58576e-07
2.24001e-07
-5.82578e-07
8.05694e-07
-4.30819e-07
6.5888e-07
-4.36596e-07
-2.22284e-07
6.85641e-07
2.26244e-07
-1.68398e-07
-5.44443e-07
6.98059e-07
-5.07407e-07
-1.90652e-07
1.94533e-07
-4.49977e-07
-4.21098e-07
2.91257e-07
1.29841e-07
6.58095e-07
4.54964e-07
8.45668e-08
4.67537e-07
-5.52104e-07
7.71157e-07
-5.38007e-07
-2.33151e-07
-9.42742e-08
-2.98699e-07
3.92973e-07
2.25462e-07
3.58231e-07
-5.83693e-07
5.82296e-07
-3.56835e-07
7.07093e-08
7.31784e-07
-8.02493e-07
-6.72514e-07
1.34827e-07
5.39374e-07
1.23604e-07
-4.27507e-07
-3.1741e-07
5.05494e-07
-3.54383e-07
7.58343e-07
-4.81601e-07
-2.76742e-07
1.45267e-06
-2.52401e-07
-8.07305e-08
3.33132e-07
-7.07118e-07
6.5738e-07
5.20197e-07
-8.64573e-08
-5.70761e-07
7.02927e-07
-1.32166e-07
-5.69254e-07
4.00232e-07
7.46858e-07
-5.71375e-07
-1.75483e-07
5.73492e-07
1.73366e-07
6.69477e-07
-5.02613e-07
-1.66864e-07
1.80226e-07
4.89251e-07
-6.54086e-07
6.54086e-07
5.69788e-07
-2.24287e-07
-5.48777e-07
-2.22962e-07
7.71739e-07
7.59434e-07
-4.81151e-07
-4.87116e-07
-1.32046e-07
-7.63502e-07
2.07893e-07
5.55609e-07
6.28027e-07
-4.50493e-09
-5.59064e-07
7.25396e-07
-4.09131e-07
5.75107e-07
-6.38937e-07
3.22297e-08
3.89771e-07
3.39463e-07
-7.29234e-07
1.85746e-07
-6.83615e-07
1.85965e-07
3.53409e-07
-3.34858e-07
5.20823e-07
4.53781e-07
-2.87568e-07
-2.29152e-07
5.97889e-07
1.03359e-07
-3.5576e-07
6.40372e-07
-9.26585e-08
-5.47714e-07
-6.51367e-07
1.03482e-07
5.47885e-07
-1.52926e-07
-4.98442e-07
-3.22785e-07
4.87046e-07
-1.64261e-07
3.37006e-07
3.85042e-07
-7.22048e-07
7.42215e-07
-4.05209e-07
1.28425e-07
2.45114e-07
-3.73539e-07
-1.53192e-07
-6.96187e-07
8.49379e-07
7.40889e-07
-1.85947e-07
-5.54943e-07
-3.51103e-08
7.75999e-07
7.68706e-07
-2.63662e-07
-5.05044e-07
-4.1182e-07
4.17563e-07
-3.24678e-07
-5.77735e-07
-2.97371e-07
-1.94885e-08
-5.10855e-07
6.89163e-07
-6.02937e-07
-8.62262e-08
-5.48274e-07
6.3905e-07
-9.07755e-08
-6.30156e-07
-2.91193e-08
2.28475e-07
6.18544e-08
-2.9033e-07
4.44301e-07
-4.75731e-07
6.54234e-07
-7.43585e-07
8.93511e-08
7.69941e-07
-1.15706e-07
4.55404e-07
1.91539e-07
-7.23462e-07
5.81681e-07
6.14525e-07
1.19967e-07
-7.34492e-07
-5.90045e-07
4.89832e-07
1.00212e-07
8.70416e-07
-3.56972e-07
-5.13444e-07
4.29243e-07
1.13832e-06
-3.18882e-07
-8.1944e-07
-7.35623e-07
-1.30091e-07
8.65714e-07
-4.867e-07
4.3116e-07
3.65316e-07
1.0254e-07
5.5634e-07
-1.64426e-07
5.41386e-07
-3.7696e-07
8.81542e-07
-8.21815e-07
-5.97269e-08
-8.54056e-07
5.60552e-07
2.93504e-07
-2.15706e-07
6.26215e-07
-4.10509e-07
-2.80992e-07
-3.42158e-07
6.2315e-07
-3.63804e-07
6.09314e-07
-2.4551e-07
-5.44609e-07
-9.19188e-09
5.53801e-07
-4.92047e-07
-3.03096e-07
-1.01885e-06
4.26502e-07
5.92345e-07
4.98697e-07
1.80926e-07
-6.79623e-07
-3.15544e-07
-4.73416e-07
7.88961e-07
3.22805e-07
-6.36587e-07
3.13782e-07
-6.30803e-07
9.4003e-07
-3.09227e-07
-5.68083e-07
7.08488e-07
6.21458e-07
-5.09244e-07
-1.12214e-07
-8.55795e-07
1.27032e-07
-5.2357e-07
-2.8774e-07
-4.29031e-07
4.93877e-07
-6.30844e-07
6.30844e-07
6.08686e-08
-8.11998e-07
-2.48371e-07
-5.11053e-07
7.59424e-07
5.44726e-07
6.36364e-07
-3.87817e-07
2.28949e-07
2.50574e-07
-4.79523e-07
5.99954e-07
-3.71004e-07
6.51996e-07
-3.22467e-07
-6.84275e-07
4.6127e-07
2.23006e-07
1.6593e-07
-5.2048e-07
3.5455e-07
-6.05302e-07
2.83173e-07
3.22129e-07
-5.60048e-07
7.28999e-07
-1.68951e-07
-3.72794e-07
-3.3053e-07
3.24222e-07
3.51314e-07
-6.75537e-07
9.43227e-07
-8.78341e-07
-6.48864e-08
-1.99807e-07
7.72025e-07
-6.92125e-07
1.70973e-08
-3.964e-07
-1.20605e-07
-5.76333e-07
6.4338e-07
-3.01557e-07
-3.41823e-07
4.40242e-08
3.65565e-07
-4.7583e-07
-1.37027e-07
-2.61983e-07
7.16737e-07
-4.54753e-07
3.77823e-08
-5.86057e-07
-2.45687e-07
5.88873e-07
-3.43187e-07
6.09177e-07
3.36187e-07
-9.45364e-07
7.14951e-07
4.33923e-08
7.20604e-07
-5.77515e-08
-5.70118e-07
4.92089e-07
7.80289e-08
-3.58582e-07
-2.59592e-07
-2.86616e-08
-4.83869e-07
5.1253e-07
-4.16761e-07
-2.12679e-07
6.8325e-09
-4.77004e-07
4.70171e-07
1.82032e-07
4.36372e-07
-6.18404e-07
9.71659e-07
-7.89626e-07
-5.46097e-07
4.30525e-07
-6.06209e-07
2.32616e-07
5.67059e-07
-2.24754e-07
-5.43554e-07
-2.28325e-07
7.71879e-07
2.12347e-07
-6.39854e-07
-5.23513e-07
-5.50572e-07
1.77987e-07
-5.00773e-07
-6.25653e-07
-1.02897e-07
7.68435e-07
-9.53467e-07
1.85032e-07
1.29456e-08
5.27517e-07
-5.40463e-07
5.44256e-07
-9.84402e-07
4.40146e-07
-3.26927e-07
7.99311e-07
-4.72384e-07
5.83114e-07
-9.10041e-07
5.67032e-07
-6.83172e-07
1.16139e-07
-2.30672e-07
6.25553e-07
-3.9488e-07
4.49193e-07
-6.79865e-07
-2.85354e-08
5.27232e-07
-6.08723e-07
2.07912e-07
7.37885e-07
-5.0941e-07
-5.64173e-07
3.24464e-07
2.39709e-07
-4.74868e-07
-2.09407e-07
6.46381e-08
3.42892e-07
-4.0753e-07
-4.85789e-07
6.35184e-07
-1.49395e-07
2.84079e-08
4.3813e-07
-4.66538e-07
-1.50055e-07
-4.83683e-07
-6.87854e-07
2.41036e-07
4.46819e-07
-1.0533e-07
7.25459e-07
2.2885e-07
3.36869e-07
-5.65719e-07
6.2069e-07
-2.79475e-07
-4.36802e-07
5.4454e-07
8.48538e-07
-3.42833e-07
-3.13865e-07
7.2721e-07
-4.13345e-07
3.89388e-07
2.8761e-07
-6.76998e-07
-4.88522e-07
-1.42323e-07
-2.56158e-07
5.92149e-07
-3.35991e-07
5.36183e-07
2.06722e-07
-7.42905e-07
-7.79137e-07
1.61474e-07
6.17664e-07
-3.32551e-07
8.49082e-07
-5.16532e-07
-3.98408e-07
-2.30999e-07
2.53757e-07
-6.23817e-07
3.7006e-07
-2.21846e-07
-6.67248e-07
-6.02414e-07
1.23417e-06
-1.01058e-07
5.75191e-07
-4.74132e-07
6.46587e-08
4.84793e-07
5.45322e-07
-4.60755e-07
8.99647e-07
-2.57488e-07
-6.42159e-07
9.99356e-07
-9.97095e-08
4.97616e-07
2.1744e-07
-2.26596e-07
5.34734e-07
-3.08138e-07
4.77511e-07
-5.91629e-07
1.14118e-07
8.24439e-08
3.95067e-07
-5.11595e-07
5.334e-07
3.85964e-07
-3.38555e-07
-8.25427e-08
7.06003e-07
-2.09365e-07
-4.96638e-07
-2.96926e-07
-1.3836e-07
4.35286e-07
3.49479e-07
3.00084e-07
-6.49563e-07
1.82172e-07
-4.79099e-07
-1.90869e-07
5.75042e-07
-7.51467e-07
5.15619e-07
2.35847e-07
-2.20783e-07
-2.65795e-07
1.53601e-07
-6.19476e-07
1.41194e-06
-4.01664e-07
9.70556e-07
4.41384e-07
-5.73927e-07
-2.8013e-07
-3.18502e-07
4.97122e-07
-1.78621e-07
6.59094e-07
9.97116e-08
-7.58805e-07
-6.29346e-07
4.76153e-07
-2.31961e-07
-3.73341e-07
5.88183e-07
9.31953e-08
-6.81379e-07
7.15643e-07
-2.03267e-07
-1.12197e-07
5.49389e-07
-4.37192e-07
-6.66326e-07
5.54129e-07
-1.56273e-07
9.13485e-07
-7.02352e-07
1.85983e-07
5.16369e-07
2.54926e-07
-6.88129e-07
4.33202e-07
5.16555e-07
1.46221e-08
-5.31177e-07
-3.05469e-07
-4.04101e-07
7.09569e-07
3.6246e-07
3.13447e-08
-3.93805e-07
-4.53568e-07
3.54723e-07
4.57841e-07
1.6719e-09
7.07298e-07
1.3211e-08
-7.20509e-07
-5.25364e-07
1.3322e-06
-8.06839e-07
-7.13608e-07
1.69e-07
-5.14629e-07
2.98924e-07
4.48402e-07
-3.32211e-07
-1.1619e-07
-5.86e-07
5.57339e-07
3.75457e-07
-7.04399e-07
3.28943e-07
-6.6113e-07
2.97326e-07
5.97788e-07
-4.69364e-07
-3.2307e-07
-4.90692e-07
8.13762e-07
3.64123e-07
2.02936e-07
-5.67059e-07
-9.4706e-08
5.25773e-07
8.22616e-07
8.73543e-08
1.90668e-07
6.36619e-07
-8.27287e-07
2.38324e-07
-4.8401e-07
-5.95558e-07
4.01997e-08
5.55359e-07
-6.58096e-07
6.25371e-08
-7.68981e-07
8.46227e-07
-7.72468e-08
3.65567e-07
1.73548e-07
-5.39115e-07
-5.03788e-07
4.52657e-07
5.11309e-08
1.86267e-07
4.69518e-07
4.42114e-07
-6.37939e-07
1.95825e-07
2.49553e-07
1.98848e-07
-5.80192e-07
-2.07007e-07
-7.20817e-07
6.81381e-07
3.94359e-08
2.37789e-07
3.76736e-07
-6.10183e-08
6.2572e-07
7.96195e-07
-3.69414e-08
-7.59254e-07
-1.69516e-07
-3.84805e-07
2.6353e-07
-5.4489e-07
2.8136e-07
-1.22059e-07
-3.37224e-07
7.85739e-07
-4.48515e-07
4.30816e-07
-6.45228e-07
2.14412e-07
3.42856e-07
-7.03107e-07
6.40488e-07
-2.97632e-07
4.89442e-07
-1.20372e-08
-5.79627e-07
4.15201e-07
-7.12472e-07
4.09468e-07
3.03004e-07
-5.67352e-07
5.74184e-07
1.1892e-06
-1.1892e-06
-5.35893e-07
-3.37552e-08
5.69648e-07
-4.32524e-07
6.58216e-07
-2.25692e-07
-3.24276e-07
6.78421e-07
8.88495e-07
-2.52684e-07
-6.35811e-07
4.34028e-07
3.16402e-07
-3.44658e-07
6.52927e-07
-3.0827e-07
6.49103e-07
-4.18295e-07
-2.30808e-07
-9.31848e-09
-4.27154e-07
4.36472e-07
3.06866e-07
3.18134e-07
-1.08828e-07
5.76365e-07
-2.09659e-07
-4.46958e-07
7.23164e-07
-6.52455e-07
-1.2134e-07
-6.72768e-07
-1.49514e-07
3.24112e-07
1.06182e-06
-1.70796e-07
-3.55268e-07
6.72835e-07
-5.06479e-08
5.76792e-07
9.60421e-08
-8.35541e-07
6.08945e-07
7.93557e-08
-4.85218e-07
4.05862e-07
3.15338e-07
1.67901e-09
4.10232e-07
-7.77919e-07
-2.26278e-07
6.3651e-07
4.72608e-07
1.02511e-07
4.68798e-07
-5.71309e-07
-5.44785e-07
6.47296e-07
8.41551e-07
-6.09246e-07
-2.32305e-07
4.8449e-07
2.14715e-07
-7.29386e-07
-1.97915e-08
-3.864e-07
2.50966e-10
4.56145e-07
-4.87962e-07
3.18168e-08
-6.22736e-07
5.24745e-07
-1.4996e-07
5.99152e-07
5.79996e-07
-6.12274e-08
-5.18768e-07
-3.72243e-07
-3.79224e-07
-7.51392e-07
2.74389e-07
-6.35694e-07
1.45949e-07
4.89745e-07
-6.48678e-07
1.29829e-08
7.0184e-07
1.57478e-07
-5.6869e-07
2.35729e-07
3.32962e-07
-8.41317e-07
3.87649e-08
8.02552e-07
-5.51246e-07
1.22322e-07
4.28924e-07
-2.62839e-07
-4.57305e-07
7.20144e-07
-3.00197e-07
-4.63306e-07
3.62893e-07
3.85005e-07
-5.76412e-08
5.71482e-07
-5.13841e-07
5.54829e-07
-6.12471e-07
-6.36097e-07
1.73344e-07
4.62753e-07
-3.71843e-07
5.26413e-07
-5.52015e-07
-2.64132e-07
8.16147e-07
-6.06439e-07
1.03291e-07
5.03148e-07
-1.09939e-06
-6.08222e-08
1.16021e-06
-2.42584e-07
-8.56805e-07
-3.32885e-07
-2.52309e-07
5.85194e-07
-3.80911e-07
9.90089e-07
4.33098e-07
2.53441e-07
-6.86538e-07