/*--------------------------------*- C++ -*----------------------------------*\
  =========                 |
  \\      /  F ield         | OpenFOAM: The Open Source CFD Toolbox
   \\    /   O peration     | Website:  https://openfoam.org
    \\  /    A nd           | Version:  7
     \\/     M anipulation  |
\*---------------------------------------------------------------------------*/
FoamFile
{
    version     2.0;
    format      ascii;
    class       volVectorField;
    location    "10";
    object      U;
}
// * * * * * * * * * * * * * * * * * * * * * * * * * * * * * * * * * * * * * //

dimensions      [0 1 -1 0 0 0 0];

internalField   nonuniform List<vector> 
13182
(
(0.496744 -0.00292264 -2.5618e-18)
(0.569175 0.0538217 0)
(0.664741 -0.159971 -8.76258e-18)
(0.505514 -0.00784166 1.9927e-17)
(0.458864 0.0948627 -9.62421e-19)
(0.599462 0.0035493 -9.96239e-18)
(0.590427 0.02238 -1.91936e-17)
(0.519271 0.00921128 2.22797e-17)
(0.499396 -0.00725895 1.15282e-17)
(1.14641 -0.0607079 -1.06835e-17)
(1.06086 -0.00326357 0)
(0.460929 0.0124174 7.39865e-20)
(0.477865 -0.017651 1.1592e-18)
(0.593169 -0.01695 2.20364e-17)
(0.589364 0.0183637 0)
(0.435445 0.0130609 -9.83934e-18)
(0.497265 -0.0123098 5.5549e-18)
(0.49933 0.0258576 0)
(0.587023 0.020412 1.91969e-17)
(0.622527 0.0371889 0)
(0.589376 -0.146244 8.58419e-18)
(0.57978 0.012198 0)
(0.486751 -0.0199122 -6.17112e-19)
(0.665932 -0.0503378 -3.56974e-17)
(0.53252 0.0401709 -2.11996e-18)
(0.626132 0.0785458 0)
(0.512358 0.0382945 0)
(0.582064 -0.0631512 0)
(0.765634 -0.0182196 -3.39306e-18)
(0.496792 0.0263222 3.54429e-17)
(0.499883 0.0301203 0)
(0.49889 -0.00443134 -2.09137e-17)
(0.450193 0.019495 4.71453e-18)
(0.691102 0.0811514 -4.92887e-18)
(0.636437 0.209035 1.38035e-17)
(0.540774 0.115196 0)
(0.502039 0.0035162 0)
(0.700289 -0.101719 1.48402e-17)
(0.781198 -0.0592065 0)
(0.508512 -0.0295074 1.04162e-17)
(0.520007 0.196747 3.05397e-19)
(0.984782 -0.239272 -2.34422e-18)
(0.771072 0.0150199 -8.52568e-18)
(0.865645 0.0821869 2.57189e-18)
(0.622267 0.0330356 1.26021e-18)
(0.603631 0.212814 0)
(0.502248 -0.0209824 -2.39828e-17)
(0.962277 -0.126815 0)
(0.723174 -0.0767413 -6.52666e-18)
(0.520035 -0.000996921 0)
(0.550099 -0.0782885 0)
(0.60723 -0.118821 0)
(0.567684 -0.0306719 -5.25982e-18)
(0.516553 0.00634011 -8.38806e-18)
(0.466286 -0.0293569 0)
(0.496385 0.0124856 0)
(0.449613 -0.0111274 0)
(0.513322 -0.0102529 8.44369e-18)
(0.420879 -0.0323914 1.00228e-17)
(0.503002 0.0296849 0)
(0.507094 0.00251019 0)
(0.514456 0.00446336 -2.31186e-17)
(0.472302 -0.0100124 9.53791e-18)
(0.571235 -0.114773 -1.67238e-17)
(0.670986 0.0827213 -1.90448e-17)
(0.618999 0.10033 3.45707e-17)
(0.420489 -0.0517008 9.51168e-18)
(0.481697 0.0591284 -4.50623e-18)
(0.52353 -0.043662 1.98507e-18)
(0.454783 0.0307291 9.30595e-18)
(0.584817 -0.0783442 4.85204e-19)
(0.550691 0.00489077 5.82486e-18)
(0.571316 0.0230739 -1.2219e-17)
(0.54457 0.171381 0)
(0.648722 0.113852 -3.37423e-18)
(0.508188 0.00956632 -2.30515e-17)
(0.522162 0.017138 0)
(0.533111 0.0103588 -6.26576e-18)
(0.512337 -0.00574437 -2.35372e-17)
(0.554359 -0.0384391 4.12396e-17)
(0.502054 0.0133145 5.73217e-18)
(0.589852 0.114528 -1.00412e-17)
(0.551977 0.0173406 -5.40343e-18)
(0.55939 -0.0326705 4.91615e-18)
(0.653223 -0.00459368 4.01306e-18)
(0.817962 0.0297747 0)
(0.893138 -0.0257108 0)
(0.426492 -0.10709 1.03745e-17)
(0.519393 0.0429808 0)
(0.442665 0.0444257 8.75308e-18)
(0.50573 -0.0806374 0)
(0.499758 0.018445 1.23898e-17)
(0.606292 0.0200637 -5.06239e-18)
(0.277336 -0.175483 -1.14481e-17)
(0.508834 0.0524204 2.12819e-17)
(0.508826 -0.000576068 0)
(0.672585 -0.15031 -8.18185e-18)
(0.422542 -0.000395053 -5.36332e-18)
(0.491984 0.0270073 0)
(0.532931 0.0418753 0)
(0.633676 0.039885 5.76658e-18)
(0.732712 -0.105231 0)
(0.621466 0.0177795 0)
(0.571151 0.0120508 1.92334e-17)
(0.554628 0.0322114 1.10306e-17)
(0.502923 0.0319605 8.71922e-18)
(0.716037 0.0410351 4.05805e-18)
(1.20273 -0.151267 4.16483e-18)
(0.512552 0.0128533 2.88602e-17)
(0.702518 0.0936775 0)
(0.551066 0.0267627 -2.60019e-17)
(0.822962 0.0663881 -5.29976e-18)
(1.06791 0.0429408 1.28607e-17)
(0.587991 0.00509999 1.09772e-19)
(0.568768 -0.0385623 -7.95699e-18)
(0.702437 -0.00508686 1.39507e-17)
(0.528527 0.0161817 -1.45467e-17)
(0.621408 -0.293634 -2.90678e-18)
(0.560796 -0.0981201 -1.41309e-17)
(0.520826 -0.0874963 -6.65597e-20)
(0.480005 -0.0393631 0)
(0.843797 0.019315 1.02105e-17)
(0.518517 0.0185205 0)
(0.578781 0.000841828 1.96378e-17)
(0.652395 -0.00329311 8.2133e-18)
(0.664016 -0.0295999 0)
(0.528302 -0.0176889 9.50583e-18)
(0.488466 -0.00319125 -5.31359e-18)
(0.565797 -0.000143567 2.18159e-17)
(0.394909 -0.133086 0)
(0.71039 -0.0121108 -2.78753e-18)
(0.587212 0.00539212 0)
(0.534337 -0.00450205 0)
(0.701412 -0.040527 6.02271e-18)
(0.602949 -0.0141836 2.9626e-17)
(0.496099 -0.0023501 -1.99229e-17)
(0.523514 -0.00555065 -1.54409e-18)
(0.468239 0.0122124 4.84417e-18)
(0.552628 0.000316143 0)
(0.563272 0.0387544 -3.64838e-17)
(0.623171 0.159498 -1.71031e-17)
(1.1196 0.273249 0)
(0.858212 -0.203729 -4.20358e-18)
(0.738823 -0.0383893 0)
(0.793116 -0.0906728 -9.67102e-18)
(0.532515 0.00183525 3.17194e-20)
(0.614761 0.045756 0)
(0.457417 -0.0751899 0)
(0.494567 0.0190556 1.16011e-17)
(0.683588 -0.151664 0)
(0.607432 -0.174738 2.35008e-18)
(0.625579 0.0972036 -7.82034e-18)
(0.526554 0.0757872 0)
(0.650245 0.0436997 -6.77951e-18)
(0.389052 -0.0269261 -1.46204e-17)
(0.45687 -0.0275224 -1.66379e-17)
(0.774827 -0.0370459 0)
(0.402021 0.274118 -1.76293e-21)
(0.673464 0.125473 2.25723e-18)
(0.638919 0.020038 0)
(0.636397 0.00470934 8.86039e-18)
(0.706575 -0.091101 1.46062e-17)
(0.49336 -0.0957273 -6.3986e-18)
(0.473648 0.0163535 2.23079e-17)
(0.55112 0.00159629 4.14035e-20)
(0.485799 0.0124652 -4.70729e-20)
(0.521643 0.0202018 -1.23944e-17)
(0.608992 0.132407 1.8207e-17)
(0.615736 0.0583803 -4.1207e-18)
(0.579967 -0.0810021 0)
(0.8367 -0.0252529 0)
(0.667605 -0.0543799 1.10109e-17)
(0.570422 -0.0420106 0)
(0.6226 0.114837 1.03363e-18)
(0.352489 0.0872774 -6.94972e-18)
(0.453107 -0.0159101 -1.92573e-17)
(0.751392 -0.196884 0)
(0.727552 -0.062143 7.03322e-18)
(0.555543 -0.00655861 0)
(0.549238 0.0246099 0)
(0.506416 0.0418137 8.5632e-18)
(0.946631 -0.113993 7.29514e-18)
(0.500844 0.0111926 0)
(0.547992 0.00277285 -2.99224e-17)
(0.350657 0.00473811 4.73675e-18)
(0.734942 0.0701962 7.35339e-18)
(0.787973 -0.0315897 -1.41912e-17)
(0.509733 0.007855 2.12521e-17)
(0.374153 0.0236503 -1.23586e-17)
(0.563781 -0.00492856 -9.03385e-18)
(0.340222 0.0322677 5.93606e-18)
(0.505319 0.0152276 3.07325e-22)
(0.338447 0.00112651 5.8172e-18)
(0.465679 0.0023695 0)
(0.510278 0.0170955 -2.41547e-17)
(0.373614 -0.0784506 -7.16645e-18)
(0.754133 -0.0761794 -1.36037e-17)
(0.446018 -0.0343932 -4.69281e-18)
(0.571772 -0.0264138 -1.66304e-17)
(0.441923 0.0442192 -4.56448e-18)
(0.502398 -0.038196 2.04401e-17)
(0.546129 -0.0177647 -3.32989e-17)
(0.464672 -0.0798472 -1.17076e-18)
(0.513349 0.011797 0)
(0.717298 0.0514633 9.09955e-20)
(0.307355 0.11832 -3.48999e-18)
(0.608831 0.129415 4.39596e-18)
(1.03503 -0.0869458 0)
(0.505478 0.00530218 -1.43496e-17)
(0.603647 0.0987993 5.45709e-18)
(0.645372 -0.0567341 0)
(1.12318 0.027404 0)
(0.496911 -0.0186347 2.04043e-17)
(0.447528 0.00511196 -2.48784e-17)
(0.664372 0.0174285 0)
(0.533362 -0.018694 0)
(0.565497 -0.0430077 -1.66537e-17)
(0.505207 0.00661533 2.47235e-17)
(0.503262 -0.0348262 1.7276e-17)
(0.46109 0.0766876 7.89049e-19)
(0.581325 0.0887689 0)
(0.672313 0.040758 0)
(0.471138 0.0919168 -2.45822e-18)
(0.575802 -0.0311023 -5.42545e-18)
(0.649555 -0.0750976 -4.25346e-18)
(0.504881 0.000373051 2.50995e-17)
(0.517704 -0.00112685 -1.05244e-17)
(0.498766 0.0347353 0)
(0.488141 0.0087716 -1.14795e-17)
(0.538228 0.0042827 4.07706e-17)
(0.500741 0.0073993 -1.11252e-17)
(0.592186 0.0638167 1.09499e-17)
(0.603677 0.0379971 -1.09149e-17)
(0.587 -0.0213237 0)
(0.529467 0.0337872 2.68642e-18)
(0.502476 -0.00193105 0)
(0.765488 -0.124869 6.1046e-20)
(0.580283 0.00439582 -2.08737e-17)
(0.598335 0.00914994 0)
(0.459832 0.0683894 8.30733e-20)
(0.737426 0.0587588 -5.5693e-18)
(0.751861 -0.0711893 2.92411e-18)
(0.521535 -0.0161865 1.09457e-17)
(0.494222 0.00373908 -9.19193e-18)
(0.4986 -0.0193526 2.99462e-17)
(0.538881 0.0514071 -1.02218e-17)
(0.496727 -0.0822268 -1.75367e-17)
(0.631987 -0.0223594 3.40619e-17)
(0.496782 3.77171e-05 1.21757e-18)
(0.585308 0.0124236 -8.60622e-18)
(0.475532 -0.0148085 -4.84919e-18)
(0.518405 -0.0651794 9.20366e-18)
(0.52407 -0.0399348 -2.4298e-17)
(0.534113 -0.00659978 7.46786e-18)
(0.621072 0.28001 3.48691e-18)
(0.509973 0.00124464 1.01923e-17)
(0.761064 0.026569 3.31931e-18)
(1.0377 0.0533202 2.32693e-18)
(0.881033 -0.0302081 4.94874e-19)
(0.679292 0.0116718 3.19078e-18)
(0.656204 0.0934836 0)
(0.497922 -0.00672129 -3.10257e-17)
(0.523639 -0.00566518 -1.10278e-17)
(0.495821 0.00921649 0)
(0.443704 0.0768407 1.04161e-17)
(0.63734 -0.0543487 -7.36199e-18)
(0.380895 -0.18095 -4.96512e-18)
(0.561521 -0.0052062 0)
(0.514948 0.0236333 1.79288e-17)
(0.50319 0.0178649 1.39636e-18)
(0.520691 0.00617918 2.15756e-17)
(0.539143 -0.00554438 2.32364e-17)
(0.579296 -0.0259786 -2.12882e-17)
(0.554302 -0.024595 0)
(0.513128 0.0200895 0)
(0.679686 -0.161128 1.33084e-17)
(0.548691 0.0056441 -2.19386e-17)
(0.534312 0.00812392 3.1023e-17)
(0.556893 -0.0202646 0)
(0.501001 0.0210218 0)
(0.503648 0.00834915 2.35321e-17)
(0.378965 -0.0921093 -6.95505e-18)
(0.526759 -0.0343376 0)
(0.542504 -0.0299406 -1.37071e-17)
(0.482009 -0.0256848 2.52902e-18)
(0.596734 0.141604 -1.84844e-18)
(0.637166 -0.102865 -1.30635e-17)
(0.505448 0.0169527 2.22864e-17)
(0.723666 0.186433 -4.62996e-18)
(0.487983 0.0217818 1.25499e-17)
(0.516762 -0.031345 -6.03497e-18)
(0.940296 0.039047 5.05809e-18)
(0.495075 -0.0242421 -3.65112e-18)
(0.645264 0.0807773 4.80388e-18)
(0.502683 0.0382575 -5.5258e-18)
(0.504324 -0.000691142 -8.51927e-18)
(0.516118 0.00535675 0)
(0.513576 0.00814467 0)
(0.515163 -0.0113005 1.78527e-17)
(0.513142 -0.00680425 6.02184e-18)
(0.315892 0.0306079 -8.2113e-18)
(0.536054 -0.104834 -2.50205e-17)
(0.512386 -0.0247138 -1.04804e-17)
(0.493404 -0.0260353 -5.5254e-18)
(0.811562 -0.240883 0)
(0.13897 -0.0257043 6.99017e-18)
(0.5661 0.00440512 -1.84567e-17)
(0.605639 0.0309172 -9.7872e-18)
(0.503468 -0.0180386 -2.36997e-17)
(0.320981 -0.0477515 -5.15847e-21)
(0.489717 -0.0216693 0)
(0.484716 0.00145919 1.06548e-17)
(0.473243 -0.0187605 6.40789e-18)
(0.484383 0.0355765 -2.26299e-17)
(0.500309 0.0151408 0)
(0.508946 -0.00928134 2.54958e-17)
(0.502399 0.00405245 -2.16912e-17)
(0.524136 0.0331233 0)
(0.497457 0.011856 -4.18801e-17)
(0.62476 0.0781164 -6.30377e-18)
(0.428037 0.0915913 1.02752e-17)
(0.463177 0.030076 -3.82134e-18)
(0.542018 0.0343767 -2.16126e-17)
(0.527843 -0.0064205 1.06684e-17)
(0.554154 0.0170875 -1.72705e-17)
(0.525078 0.000898343 2.20769e-17)
(0.544604 0.10122 -6.85499e-20)
(0.495179 0.027028 0)
(0.488479 -0.17268 0)
(0.541033 0.036141 6.96545e-18)
(0.632569 0.062259 0)
(0.613187 0.0635583 0)
(0.611614 -0.0477433 0)
(0.776033 -0.0116355 1.20814e-17)
(0.681909 -0.0480355 0)
(0.51785 -0.0387771 -1.20467e-18)
(0.555902 0.0748657 1.83558e-17)
(0.452124 0.00965719 9.87521e-18)
(0.484326 0.0125761 0)
(0.919884 -0.0606078 -5.64287e-18)
(0.657073 -0.180797 -1.552e-18)
(0.49505 -0.0190619 0)
(0.488669 -0.00626917 3.01941e-18)
(0.725249 0.133087 0)
(0.906911 -0.120858 -1.05899e-17)
(0.519384 0.013107 0)
(0.534955 -0.00826309 -1.87978e-17)
(0.566878 -0.0163718 0)
(0.510675 -0.038318 2.05178e-17)
(0.713221 0.0188482 1.97353e-17)
(0.665889 0.0401116 -1.85586e-17)
(0.51855 0.0169743 3.31875e-17)
(0.46963 -0.110489 -3.66304e-18)
(0.55468 0.00173471 -2.05124e-17)
(0.584242 0.0245552 2.94421e-17)
(0.510975 0.0100127 9.78882e-18)
(0.508507 -0.022953 1.63522e-17)
(0.52616 -0.0387792 1.7041e-17)
(0.50172 -0.00164544 5.64667e-18)
(0.460773 0.0041479 -2.14359e-17)
(0.487608 -0.0438527 -2.85987e-18)
(0.508904 0.0176395 0)
(0.592947 -0.0627491 3.64175e-18)
(0.58558 0.00821689 -6.06344e-18)
(0.486306 0.213426 9.215e-18)
(0.598888 -0.00204237 0)
(0.494467 0.0248374 -1.47957e-17)
(0.56493 0.0267575 -2.31395e-17)
(0.512891 0.00683325 -1.46942e-21)
(0.541754 0.0550075 0)
(0.500178 0.00359886 1.12208e-17)
(0.516986 0.0365542 -1.10605e-17)
(0.599134 -0.0701138 2.95002e-18)
(0.621436 0.0455396 3.84213e-18)
(0.483926 -0.0208422 2.58504e-17)
(0.511765 0.0118339 -8.50528e-18)
(0.450661 0.0221936 1.69918e-17)
(0.635423 0.00843484 4.96401e-18)
(0.943999 0.151686 4.30795e-19)
(0.670941 0.1268 -2.51825e-18)
(0.549249 -0.121458 1.98312e-17)
(0.640322 0.120591 1.09793e-17)
(0.509383 0.012285 2.17885e-17)
(0.582009 0.0224685 1.04182e-17)
(0.486016 0.0502379 6.54282e-18)
(0.591387 -0.100583 2.58755e-19)
(0.669407 -1.41366e-05 1.35075e-17)
(0.531459 -0.00607429 5.6135e-18)
(0.49226 0.127292 -5.01751e-19)
(0.39121 0.0354062 -1.44951e-19)
(0.501965 0.0653227 0)
(0.488177 -0.000524415 1.49645e-18)
(0.497953 -0.00647276 -2.28292e-17)
(0.487247 0.0821878 9.25628e-18)
(0.573378 -0.000741423 8.14093e-18)
(0.469223 -0.0121486 0)
(0.504881 0.00528838 0)
(0.621929 -0.00982906 -5.52785e-18)
(0.442478 -0.16594 1.88974e-17)
(0.559395 0.0235211 -6.03709e-18)
(0.745792 -0.137413 0)
(0.63594 -0.11699 -5.39393e-18)
(0.545296 7.26346e-05 4.74002e-18)
(0.505737 0.00670239 -4.66344e-18)
(0.518136 0.0299786 -1.54993e-17)
(0.601727 -0.072005 1.41291e-17)
(0.589198 -0.035736 -9.86732e-18)
(0.513119 0.00118861 2.26758e-17)
(0.509505 -0.00407109 0)
(0.489096 -0.0467456 -1.58942e-17)
(0.521839 0.1203 -1.95052e-17)
(0.496635 0.089964 0)
(0.574681 0.111007 1.33115e-18)
(0.575692 0.050812 -4.27478e-18)
(0.490469 -0.00118767 0)
(0.577517 -0.0296255 3.8914e-18)
(0.499544 0.000188015 0)
(1.08527 0.205279 -3.94228e-19)
(0.562461 -0.0363113 0)
(0.556322 -0.0652296 0)
(0.632395 0.04855 0)
(0.583292 0.0436765 -4.34269e-17)
(0.509534 0.0260141 2.8107e-18)
(0.508441 0.0256109 0)
(0.486633 0.007459 0)
(0.922469 0.138797 1.01652e-17)
(0.543499 -0.0325412 1.09728e-17)
(0.573149 0.00171671 8.48255e-18)
(0.586647 0.0226868 0)
(0.513257 0.038006 -1.0402e-17)
(0.71644 0.153179 -1.28929e-18)
(0.615729 0.0682697 1.84447e-17)
(0.483764 0.0547532 2.42104e-18)
(0.533041 -0.00318302 2.18923e-17)
(0.587595 0.0206984 1.18669e-17)
(0.643448 -0.152657 0)
(0.503049 0.00414892 9.83247e-18)
(0.537189 0.00592266 3.72329e-18)
(0.48686 -0.138524 9.74458e-18)
(0.553592 0.0791997 0)
(0.515346 -0.0432333 -4.83745e-18)
(0.716531 0.064689 -1.59044e-17)
(0.571132 -0.0382757 0)
(0.479096 0.0287885 -1.04991e-17)
(0.387749 -0.0719687 2.61194e-17)
(0.503689 -0.00222217 0)
(0.967984 -0.164501 0)
(0.503315 -0.00171892 0)
(0.44831 0.0873255 0)
(0.500279 0.0115753 1.13902e-17)
(0.48646 0.00188595 -2.08062e-17)
(0.453253 0.075111 2.06954e-17)
(0.39214 -0.06801 6.49067e-18)
(0.514336 0.00291663 5.96709e-18)
(0.522542 -0.190241 2.96821e-18)
(0.628939 -0.0520512 1.88147e-17)
(0.48986 0.00619136 0)
(0.507682 0.0162066 0)
(0.489563 0.0171041 0)
(0.532713 -0.0183072 2.8844e-17)
(0.497204 -0.000739476 -1.07202e-17)
(0.5007 -0.00111701 2.56936e-18)
(0.255594 -0.198253 2.02377e-19)
(0.529963 0.013232 1.78856e-17)
(0.49777 -0.0176191 0)
(0.496204 -0.0072553 2.49961e-17)
(0.612378 0.0456705 -7.99202e-18)
(0.421091 -0.0655346 -3.9143e-18)
(0.498427 0.0038779 2.03334e-20)
(0.558096 3.89639e-05 0)
(0.528876 -0.0251242 -1.75005e-17)
(0.680485 -0.383344 0)
(0.501447 -0.00511385 -2.25961e-17)
(0.547181 -0.00684545 0)
(0.670346 0.00750132 -4.16583e-18)
(0.770271 0.147006 7.85709e-18)
(0.494557 0.0207921 -6.03396e-18)
(0.601298 -0.17655 -1.48888e-18)
(0.49344 0.0234115 5.9596e-18)
(0.515974 0.0275087 -2.23726e-17)
(0.508362 0.000867724 0)
(0.51033 0.0157406 -2.09192e-17)
(0.586042 -0.04669 0)
(0.516104 0.0119625 0)
(0.447698 0.0604171 -1.87731e-18)
(0.643822 0.281742 -5.42842e-18)
(0.50166 -0.0335082 -2.68953e-17)
(0.690577 -0.0376841 1.89705e-17)
(0.638836 -0.02341 0)
(1.2026 -0.357554 2.10273e-18)
(0.522319 -0.0119302 0)
(0.571553 -0.0450464 8.87332e-18)
(0.502478 0.000927435 -1.10117e-17)
(0.300233 0.117415 8.58756e-18)
(0.500892 0.011789 0)
(0.254995 0.115817 7.09374e-18)
(0.699042 -0.0699209 -1.4399e-17)
(0.74172 -0.0851079 -4.55398e-19)
(0.510483 0.0401177 0)
(0.469217 -0.0303019 -1.72849e-17)
(0.514637 0.00602162 0)
(0.486816 0.00427208 1.16901e-17)
(0.522796 0.00698467 5.79295e-18)
(0.84246 -0.00582073 0)
(0.752308 0.0847792 -5.91349e-18)
(0.535262 0.0296115 -2.57688e-18)
(0.495482 -0.0188248 0)
(0.521774 0.030048 0)
(0.514599 -0.0643893 -2.20748e-17)
(0.796543 0.0790531 7.65253e-18)
(0.741663 -0.0269521 7.50943e-18)
(0.328436 -0.0479563 0)
(0.593761 0.00577604 0)
(0.666877 -0.143517 1.93444e-17)
(0.64368 0.0373737 1.7993e-17)
(0.598975 0.0200983 -8.76449e-20)
(0.508189 -0.0289341 1.31412e-17)
(0.494426 -0.00184485 0)
(0.452666 0.0502409 -1.06421e-17)
(0.430563 -0.342492 -6.21925e-18)
(0.516846 0.0131685 -2.09933e-17)
(0.535258 0.00282835 0)
(0.549436 0.0424274 -5.39593e-18)
(0.520899 0.170904 3.34074e-18)
(0.584453 -0.0740247 -7.36423e-18)
(0.60003 0.0212439 0)
(0.503993 0.0186785 9.80391e-18)
(0.471974 -0.0559938 0)
(0.498206 0.0070261 0)
(0.645925 0.0624155 -8.87011e-18)
(0.511362 0.0214703 8.62515e-18)
(0.492833 -0.0281055 -1.70745e-17)
(0.646709 -0.0214791 1.15811e-17)
(0.487359 -0.0350547 1.01137e-17)
(0.89278 -0.0631298 -9.96175e-19)
(0.609786 0.00937996 -1.00731e-17)
(0.534858 0.0416678 1.05452e-17)
(0.424208 -0.191247 -1.12661e-17)
(0.627724 0.0348503 0)
(0.565767 0.0415777 0)
(0.555111 0.000789626 0)
(0.555461 -0.00469181 -1.09437e-17)
(0.506576 0.00679395 -1.23114e-17)
(0.827257 -0.0366746 -3.78573e-18)
(0.479261 -0.00331599 -2.2335e-17)
(0.530744 -0.0210082 -4.10642e-18)
(0.70865 0.0680231 8.54698e-18)
(0.511941 0.000127377 -2.04999e-17)
(0.69684 0.125392 1.26853e-17)
(0.511302 0.0243733 -2.13361e-17)
(0.496601 0.0188759 -5.55757e-18)
(0.539844 0.0466054 1.08711e-17)
(0.566196 0.0291969 0)
(0.536525 0.0217484 -1.68179e-17)
(0.582686 0.0453169 -6.04093e-18)
(0.522608 -0.00427895 -3.69774e-19)
(0.482122 0.00125097 5.70921e-18)
(0.485973 -0.0313117 5.21001e-18)
(0.573498 -0.0116039 -2.78078e-17)
(0.528337 0.0187486 2.81429e-17)
(0.779968 0.0470112 -1.3047e-17)
(0.502778 0.0305209 0)
(0.535302 0.0346105 -2.68188e-17)
(0.562665 0.0402552 -9.61863e-18)
(0.50413 -0.00406087 2.11051e-17)
(0.535892 -0.0331773 2.11362e-17)
(0.547704 0.0470414 -8.95202e-18)
(0.715987 -0.17766 3.05571e-18)
(0.751792 -0.20049 1.07813e-17)
(0.561202 -0.000433877 0)
(0.601177 -0.0443978 -2.3876e-18)
(0.734058 0.181481 1.10933e-17)
(0.694221 0.0730803 -1.25609e-17)
(0.531783 0.0437038 -9.75847e-18)
(0.504529 -0.000416644 2.091e-17)
(0.476417 0.00176736 -2.29467e-17)
(0.501447 -0.0314884 0)
(0.557522 -0.0155879 1.04053e-17)
(0.464484 -0.0152242 -1.26357e-17)
(0.555184 -0.12778 7.42973e-18)
(0.582846 -0.0294298 1.93582e-17)
(0.72697 -0.209921 0)
(0.50179 0.00401237 3.18005e-17)
(0.525437 -0.0430488 -6.25434e-20)
(0.585845 -0.0674537 -1.08308e-17)
(0.663958 0.0689079 -5.28551e-18)
(0.492548 -0.00746093 0)
(0.522785 0.0185296 2.10824e-17)
(0.52868 0.053127 -2.28055e-17)
(0.684019 0.0766813 -1.45778e-17)
(0.569305 0.0819651 -1.4414e-17)
(0.598612 0.0990846 0)
(0.527589 -0.0202729 1.91366e-17)
(0.427175 0.0536036 -1.89243e-17)
(0.529352 0.0339817 -2.92024e-17)
(0.60185 -0.113545 -1.16392e-17)
(0.837917 -0.0104788 -8.13223e-18)
(0.50769 0.00488154 0)
(0.497303 0.00792216 1.52734e-17)
(0.493267 -0.0118302 2.64381e-17)
(0.557997 -0.00254535 2.35292e-17)
(0.504417 0.00947297 0)
(0.507021 0.0244789 0)
(0.481342 -0.000837196 -1.67986e-17)
(0.752478 -0.193265 2.8114e-18)
(0.700236 -0.0236728 7.49518e-20)
(0.837238 -0.0738035 -2.97144e-18)
(0.644563 -0.0386733 -2.37933e-17)
(0.503513 0.0141938 -1.14385e-17)
(0.508642 0.0058672 0)
(0.505559 0.0115423 -2.42018e-17)
(0.602781 0.0175771 -5.76012e-18)
(0.483861 0.0349067 1.00525e-17)
(0.796485 0.0500627 -9.40949e-18)
(0.727241 0.0965589 7.34116e-18)
(0.410927 -0.218295 1.33392e-18)
(0.663307 -0.184399 -1.33367e-17)
(0.414228 0.0265908 9.2127e-18)
(0.556205 0.0245928 4.16097e-18)
(0.497205 -0.0425791 5.07509e-18)
(0.520608 -0.00984757 -2.24719e-17)
(0.854991 -0.191584 0)
(0.539999 -0.0285211 0)
(0.485509 0.0158556 -1.16955e-17)
(0.80237 -0.358919 9.46346e-18)
(0.669027 -0.25199 -1.44833e-17)
(0.502129 0.00710955 -2.18105e-17)
(0.570062 0.0224893 -2.34917e-17)
(0.293606 0.117607 0)
(0.511394 -0.0253421 -1.29808e-18)
(0.499266 0.0115649 5.95153e-18)
(0.499121 0.00310092 0)
(0.544197 -0.0374266 0)
(0.500127 -0.0867244 2.26432e-18)
(0.574475 -0.0170108 0)
(0.474308 -0.174568 1.19061e-17)
(0.5475 -0.00162861 -6.36643e-18)
(0.539941 0.0219613 -2.6198e-18)
(0.487086 0.0081904 9.06032e-18)
(0.531784 0.0061477 -6.3018e-20)
(0.470692 -0.0024472 1.13659e-17)
(0.549447 0.277399 0)
(0.533405 0.0663722 -1.95102e-17)
(0.474058 -0.0323913 2.07345e-17)
(0.501777 0.00292679 -1.70522e-20)
(0.5676 0.035736 -1.96597e-18)
(0.678687 0.0013723 0)
(0.53415 0.0126911 -5.98858e-18)
(0.554894 -0.130146 -7.51731e-18)
(0.546991 0.0887332 2.13758e-18)
(0.522539 0.0211706 -1.19697e-17)
(0.4891 0.0189753 3.38744e-17)
(0.61764 -0.0437261 6.83435e-18)
(0.506796 0.00816834 -5.52529e-18)
(0.505935 0.00183943 0)
(0.567361 0.0246906 -9.12985e-18)
(0.496716 0.0125893 1.1935e-17)
(0.520377 0.0092958 7.80196e-18)
(1.16869 -0.0762573 -5.21614e-19)
(0.219107 0.0610545 -3.42758e-18)
(0.50891 0.028321 -3.32014e-17)
(0.450222 0.0125555 0)
(0.718269 -0.126565 -4.92872e-18)
(0.555893 -0.0115218 9.84837e-18)
(0.493644 0.013537 2.05402e-17)
(0.521058 -0.0406557 1.96182e-17)
(0.477861 0.0290794 2.11859e-17)
(0.492107 0.0409084 -1.05806e-17)
(0.499471 -0.00542524 0)
(0.552624 0.00688994 -9.11632e-18)
(0.496065 0.00256571 0)
(0.544873 -0.0511736 0)
(0.481104 -0.00225314 0)
(0.52409 -0.00237824 -1.78518e-17)
(0.501897 -0.0236682 1.26234e-18)
(0.712192 -0.0953808 3.56724e-18)
(0.50738 0.00351234 -4.69965e-18)
(0.51432 -0.0192145 -5.78259e-18)
(0.622148 0.23353 9.43573e-18)
(0.533218 -0.000223851 2.23541e-17)
(0.593435 -0.0451293 1.3195e-17)
(0.512989 -0.00628169 1.19283e-17)
(0.490723 0.00174612 0)
(0.475041 0.0767945 1.20349e-17)
(0.520448 0.014229 2.45311e-17)
(0.427809 0.00413865 0)
(0.713695 0.0118678 0)
(0.588919 -0.0280088 0)
(0.498438 -0.114074 2.75987e-18)
(0.499628 -0.00752436 -2.28718e-17)
(0.608557 -0.0218209 2.15967e-17)
(0.525294 -0.010218 -3.01344e-17)
(0.564827 -0.0114257 0)
(0.66815 -0.0242297 -1.29823e-17)
(0.505943 -0.000789601 -2.34771e-17)
(0.507867 0.00532522 1.93684e-17)
(0.557111 0.0608937 0)
(0.639536 -0.00830016 0)
(0.450413 0.00438874 1.01713e-17)
(0.582251 -0.139045 5.96689e-18)
(0.509718 -0.00199609 -2.77137e-18)
(0.506308 0.00658722 0)
(0.546744 -0.0157603 3.48831e-17)
(0.565887 0.028994 2.32179e-17)
(0.453002 -0.156273 -3.54456e-18)
(0.506754 -0.0047153 0)
(0.543821 0.0241856 0)
(0.543616 0.0140796 -1.05615e-17)
(0.573519 0.0241567 -3.80152e-18)
(0.620492 -0.0473449 0)
(0.512453 0.0206315 -1.18394e-17)
(0.487022 -0.0155194 5.20797e-18)
(0.579594 0.0132648 0)
(0.536137 0.0155803 1.13688e-17)
(0.880087 0.108825 -1.14249e-17)
(0.779044 -0.0990416 1.28292e-17)
(0.504359 -0.01211 0)
(0.487934 -0.022183 2.46964e-17)
(0.491747 -0.00671074 0)
(0.57792 0.143356 -7.10231e-19)
(0.798197 0.0513467 0)
(0.51347 -0.149949 -8.79229e-19)
(0.493891 0.00509974 -2.16245e-17)
(0.478914 -0.0507896 1.88885e-17)
(0.498599 0.0142762 0)
(0.499184 0.0136929 -4.28559e-18)
(0.677616 -0.310426 0)
(0.701469 -0.0612716 -8.73567e-18)
(0.543547 0.0647269 1.13617e-17)
(0.498702 0.014485 -2.40915e-17)
(0.524052 0.0436127 -2.04178e-17)
(0.62844 0.0596346 -1.00802e-17)
(0.568353 -0.0410104 9.43355e-18)
(0.540585 -0.028147 -1.66e-17)
(0.625895 0.0732667 -4.86985e-18)
(0.560354 -0.0198052 -1.45065e-17)
(0.539463 0.00577559 2.33023e-17)
(0.514659 -0.000457509 0)
(0.651968 0.0290754 -2.09461e-17)
(0.665009 0.0510545 -2.63031e-17)
(0.699973 0.00453931 8.86374e-18)
(0.520403 -0.00818356 -1.13463e-17)
(0.49174 0.0140927 -8.80883e-18)
(0.555805 0.0816555 0)
(0.494544 0.00341124 0)
(0.436624 0.0724778 -1.57567e-17)
(0.513306 0.0696365 9.42375e-18)
(0.415187 0.0459859 -9.82624e-18)
(0.519194 -0.0156208 4.97171e-18)
(0.738119 -0.00207753 2.02432e-17)
(0.490601 -0.00407778 -1.99602e-17)
(0.948829 0.0893983 0)
(0.553551 0.0174196 0)
(0.498899 0.0099904 6.40743e-19)
(0.217211 0.0418802 1.7023e-19)
(0.505154 0.00265996 7.54337e-19)
(0.466537 -0.103756 0)
(0.471057 -0.0155177 1.91609e-20)
(0.47312 -0.00117103 0)
(0.719524 0.00461785 4.39301e-18)
(0.523709 0.00952964 -2.41125e-17)
(0.488473 0.00022695 8.74163e-18)
(0.971926 0.0842045 -1.18207e-17)
(0.609973 0.00375343 0)
(0.52239 0.00240713 2.84671e-18)
(0.496204 -0.012817 6.0226e-18)
(0.368321 0.058458 -1.79294e-17)
(0.573127 -0.00205337 5.14976e-18)
(0.510089 -0.000486812 -6.50297e-18)
(0.517685 0.00728501 -1.92825e-17)
(1.0135 0.130669 1.7811e-18)
(0.715659 0.0737739 -4.24858e-18)
(0.519728 0.00737948 5.30285e-18)
(0.525219 -0.00851005 -4.7572e-18)
(0.49532 -0.00249075 -5.72738e-18)
(0.499562 -0.00365365 -2.07545e-17)
(0.663062 0.0816199 1.14793e-17)
(0.527988 0.00942594 1.74103e-17)
(0.511865 0.000478355 -2.47501e-17)
(0.493609 -0.00561402 3.16343e-17)
(0.505052 -0.0123291 -4.47897e-18)
(0.820264 -0.0990233 -7.49486e-18)
(0.490939 0.0150602 -2.11188e-17)
(0.884384 0.074453 -1.98844e-17)
(0.656924 0.10388 -1.04074e-19)
(0.972521 -0.180825 0)
(0.501889 -0.00112811 -2.30557e-17)
(0.542524 -0.0551279 1.15442e-17)
(0.585445 -0.0139019 -4.88425e-18)
(0.508064 0.0375825 7.17122e-18)
(0.613798 -0.0757844 -1.98058e-17)
(0.542373 -0.107826 -6.50106e-18)
(0.565276 0.0155652 2.4288e-17)
(0.446922 0.0373788 0)
(0.437526 0.00352283 -7.06356e-18)
(0.571196 -0.137679 5.14465e-18)
(0.507765 -0.00550335 0)
(0.487174 -0.0356794 3.59727e-17)
(0.5252 0.000227786 -1.04021e-17)
(0.686887 -0.0270145 5.97863e-18)
(0.761075 -0.116721 -7.3594e-18)
(0.508392 0.00349342 -8.90517e-18)
(0.415689 0.134002 0)
(0.531467 0.0154402 -2.29612e-17)
(0.600284 -0.0880554 -9.45184e-19)
(0.534046 0.0193823 2.4162e-17)
(0.539802 0.0265928 1.86681e-17)
(0.517105 0.00526605 2.94464e-18)
(0.519296 -0.0143262 -1.05551e-17)
(0.563949 0.0827295 -4.75205e-18)
(0.558555 0.0243538 0)
(0.49785 0.0518818 0)
(0.218249 -0.0313903 1.36874e-19)
(0.634631 0.111801 1.20172e-17)
(0.683883 -0.169083 -7.05567e-18)
(0.964976 0.118333 -1.49637e-17)
(0.753195 0.0772178 0)
(0.497466 -0.0604824 -3.37726e-19)
(0.512444 -0.0221108 1.94095e-17)
(0.6622 -0.00967987 -9.09593e-18)
(0.70635 0.049172 0)
(0.491544 0.00798648 0)
(0.585686 0.0473633 1.64468e-17)
(0.503738 -0.00409708 4.78314e-18)
(0.393282 -0.00279605 -4.84521e-18)
(0.500339 -0.00587242 5.69856e-18)
(0.780594 -0.0166247 5.84446e-18)
(0.232086 -0.151147 0)
(0.50197 -0.0370383 0)
(0.48652 0.0671334 -1.45173e-17)
(0.499734 -0.00548203 -4.48246e-17)
(0.478358 0.0130859 1.93878e-17)
(0.537569 -0.0212645 1.14246e-17)
(0.488119 -0.0193161 2.60148e-18)
(0.380547 0.019206 -1.07252e-17)
(0.507747 0.123056 1.97521e-17)
(1.05578 -0.154183 3.78132e-18)
(1.02269 -0.0885704 -3.87287e-18)
(0.709782 -0.000466612 -1.30813e-17)
(0.514747 -0.0931029 0)
(0.520531 0.00494132 -4.79152e-17)
(0.70327 -0.111949 -6.41039e-18)
(0.460602 0.0319088 1.90594e-17)
(0.499159 -0.00797056 0)
(0.540826 -0.0120074 -5.10408e-18)
(0.588405 -0.0101357 0)
(0.610789 -0.0955655 -1.07879e-17)
(0.659246 0.13185 -5.96882e-18)
(0.586594 0.0100057 -1.05554e-17)
(0.589499 0.00632233 0)
(0.528754 -0.00393156 0)
(0.519769 -0.0332191 0)
(0.36611 -0.0463773 -1.29185e-17)
(0.508038 0.0245994 -2.24245e-17)
(0.488704 0.0329312 1.36642e-17)
(0.678463 -0.1572 1.47888e-17)
(1.04117 -0.0716561 0)
(0.498348 0.0159065 -6.28507e-18)
(0.498762 0.0156896 1.14859e-17)
(0.349219 -0.0237271 0)
(0.539317 0.0216128 0)
(0.655269 0.00336081 -3.85456e-18)
(0.495804 0.0155546 -1.16632e-17)
(0.549313 0.234247 0)
(0.642349 -0.142922 8.88584e-18)
(0.531101 0.00131803 1.08563e-17)
(0.488663 -0.140197 -5.64167e-19)
(0.679648 -0.032019 1.0443e-17)
(0.57654 0.00216073 1.02655e-17)
(0.491463 0.00967974 -6.51725e-18)
(0.514848 0.0141303 1.3663e-18)
(0.513149 0.00729978 1.18653e-17)
(0.573367 0.0571454 9.11558e-18)
(0.490478 0.0239823 0)
(0.457027 0.0710182 2.22473e-18)
(0.508004 0.0203574 0)
(0.500003 -0.000270848 -1.30807e-17)
(0.329568 0.105538 0)
(0.521416 0.0104431 1.07204e-17)
(0.643163 0.0217373 3.98582e-18)
(0.527587 -0.0171288 -2.47522e-17)
(0.529377 -0.0103374 -2.25057e-17)
(0.78486 -0.0410003 -3.40345e-18)
(0.430167 -0.0167544 7.85961e-18)
(0.513468 0.0668448 0)
(0.516792 0.0124176 6.11157e-18)
(0.499797 0.00325057 -3.63101e-19)
(0.497279 -0.000472399 0)
(0.499382 0.00845197 -2.94129e-17)
(0.544476 0.0382621 3.13644e-17)
(0.484858 -0.0714046 3.35662e-19)
(0.440775 0.246179 1.24218e-18)
(0.511929 0.00205105 -2.77341e-18)
(0.513724 0.0481195 0)
(0.802038 -0.00633927 0)
(0.514879 -0.00679224 -2.25418e-17)
(0.469772 -0.0307261 -1.51387e-17)
(0.57504 -0.000293693 0)
(0.885223 -0.298776 0)
(0.501025 0.0151118 1.10102e-17)
(0.565613 0.0145726 0)
(0.504674 0.0391493 0)
(0.301451 -0.161091 9.86026e-18)
(0.501186 0.0234622 -2.01666e-17)
(0.505552 -0.00175759 0)
(0.451781 -0.0551459 0)
(0.731885 0.0916296 7.87828e-18)
(0.710219 -0.114258 3.36275e-20)
(0.564132 0.00565298 2.20662e-17)
(1.01662 -0.0860296 -2.80858e-18)
(0.579077 0.023479 5.05804e-18)
(0.532518 -0.229856 5.15265e-18)
(0.56562 0.0376417 -1.35609e-19)
(0.574619 0.0743946 8.58324e-18)
(0.471225 0.0202857 -2.06381e-17)
(0.311147 -0.0657156 5.0467e-19)
(0.672637 -0.107609 3.72019e-18)
(0.703154 -0.00318831 0)
(0.62449 -0.0518165 5.66271e-18)
(0.545845 0.00861646 5.43882e-18)
(0.562564 -0.00565171 -2.79227e-17)
(0.641822 -0.214285 1.65464e-18)
(0.465855 -0.0314189 0)
(0.513005 0.0190652 0)
(0.172312 -0.0352184 2.47669e-20)
(0.476343 -0.00476941 3.84119e-19)
(0.495248 0.025538 -1.52048e-17)
(0.553348 0.00361493 -7.57172e-18)
(0.485835 -0.015857 -1.0238e-17)
(0.480839 -0.00493883 -2.67975e-18)
(0.520363 0.0227289 2.71765e-20)
(0.505264 -0.00280013 0)
(0.518188 -0.0141063 -5.41072e-18)
(0.561528 -0.0618946 0)
(0.55256 -0.0445675 -1.13018e-17)
(0.655929 0.00280522 -2.195e-17)
(0.502541 -0.00804663 -2.31246e-17)
(0.574606 0.0877399 -8.9728e-18)
(0.629765 0.138797 1.61667e-17)
(0.513291 -0.0461872 2.03873e-17)
(0.608683 0.0785687 -5.03833e-18)