/*--------------------------------*- C++ -*----------------------------------*\
  =========                 |
  \\      /  F ield         | OpenFOAM: The Open Source CFD Toolbox
   \\    /   O peration     | Website:  https://openfoam.org
    \\  /    A nd           | Version:  7
     \\/     M anipulation  |
\*---------------------------------------------------------------------------*/
FoamFile
{
    version     2.0;
    format      ascii;
    class       volScalarField;
    location    "4";
    object      p;
}
// * * * * * * * * * * * * * * * * * * * * * * * * * * * * * * * * * * * * * //

dimensions      [0 2 -2 0 0 0 0];

internalField   nonuniform List<scalar> 
65364
(
-4.48715e+06
-7.50209e+06
-4.4587e+06
-7.10715e+06
-1.13016e+07
-1.0963e+07
-6.74583e+06
-1.74915e+06
-2.49278e+06
-6.25599e+06
-2.13084e+06
-6.04213e+06
-1.00637e+07
-9.46479e+06
-1.05371e+07
-1.07859e+07
-6.42049e+06
-4.33548e+06
-8.49923e+06
-6.35566e+06
-1.02241e+07
-2.9727e+06
-1.00699e+07
-1.05516e+07
-8.34419e+06
-8.33237e+06
-3.45332e+06
-6.36334e+06
-8.85636e+06
-6.17071e+06
-815389
-1.32578e+06
-7.61383e+06
-4.66763e+06
-3.62847e+06
-1.82737e+06
-2.62531e+06
-8.28678e+06
-4.05652e+06
-1.11744e+07
-1.0315e+07
-6.12791e+06
-7.98568e+06
-4.42286e+06
-5.01451e+06
-3.4055e+06
-5.70648e+06
-7.53059e+06
-1.0579e+07
-7.3268e+06
-8.18267e+06
-9.72358e+06
-7.06119e+06
-1.01473e+07
-7.43638e+06
-3.14007e+06
-5.44564e+06
-9.87201e+06
-1.07313e+07
-7.27397e+06
-9.5274e+06
-9.11691e+06
-1.00809e+07
-4.27421e+06
-3.93734e+06
-5.34743e+06
-9.76122e+06
-9.322e+06
-1.02113e+07
-3.97332e+06
-8.27944e+06
-1.00523e+07
-3.71311e+06
-3.96502e+06
-2.37511e+06
-1.02491e+07
-1.02625e+07
-5.9594e+06
-9.44885e+06
-5.76471e+06
-7.18081e+06
-1.89856e+06
-2.84403e+06
-9.66167e+06
-1.12349e+07
-1.10386e+07
-1.07546e+07
-9.50985e+06
-1.40882e+06
-6.22323e+06
-9.1958e+06
-745461
-990268
-9.6979e+06
-9.32171e+06
-1.16599e+06
-7.118e+06
-3.42981e+06
-1.06948e+07
-2.46347e+06
-1.08027e+07
-8.38193e+06
-1.14964e+07
-1.14016e+07
-7.11832e+06
-3.35597e+06
-9.97266e+06
-8.59178e+06
-1.21234e+06
-1.07272e+07
-5.9437e+06
-8.62253e+06
-4.39899e+06
-6.6281e+06
-8.14104e+06
-9.65604e+06
-7.0141e+06
-6.62463e+06
-2.6469e+06
-7.95057e+06
-6.93253e+06
-9.21293e+06
-1.46909e+06
-1.06232e+06
-4.16009e+06
-8.9452e+06
-6.82249e+06
-7.13149e+06
-7.97048e+06
-6.14652e+06
-5.67278e+06
-8.05281e+06
-3.6679e+06
-5.38505e+06
-5.88848e+06
-8.46591e+06
-8.59087e+06
-4.45864e+06
-7.40778e+06
-6.73965e+06
-7.34719e+06
-6.70428e+06
-3.70597e+06
-3.09597e+06
-4.3793e+06
-7.23686e+06
-9.89159e+06
-9.88259e+06
-4.01156e+06
-1.00852e+06
-1.0579e+07
-8.28367e+06
-9.09548e+06
-8.32648e+06
-9.18959e+06
-6.51493e+06
-720480
-7.48224e+06
-9.40779e+06
-1.05853e+07
-5.00481e+06
-187603
-293837
-9.11987e+06
-8.35614e+06
-2.45619e+06
-4.05532e+06
-7.70815e+06
-1.03352e+07
-7.9247e+06
-2.8937e+06
-1.80542e+06
-4.50865e+06
-7.07721e+06
-9.80823e+06
-2.58021e+06
-1.00894e+07
-474959
-5.44061e+06
-9.35412e+06
-1.09584e+07
-8.72625e+06
-1.02463e+07
-6.0756e+06
-6.07056e+06
-4.15931e+06
-4.11081e+06
-3.67451e+06
-5.73876e+06
-1.82232e+06
-1.1884e+06
-4.62904e+06
-1.01514e+07
-7.97606e+06
-8.78427e+06
-1.98189e+06
-3.02346e+06
-3.13495e+06
-7.85628e+06
-6.14591e+06
-1.01689e+07
-1.01865e+07
-8.71346e+06
-5.06307e+06
-2.56634e+06
-8.72625e+06
-6.33549e+06
-4.33921e+06
-8.08624e+06
-6.98476e+06
-6.82398e+06
-1.92764e+06
-2.85472e+06
-4.96516e+06
-5.4134e+06
-3.73644e+06
-1.35612e+06
-1.38736e+06
-4.92836e+06
-6.60146e+06
-5.2847e+06
-1.73434e+06
-5.73246e+06
-733620
-1.01335e+06
-9.14399e+06
-7.97637e+06
-4.92238e+06
-7.77957e+06
-1.53146e+06
-5.74657e+06
-3.24684e+06
-1.0192e+07
-9.67585e+06
-1.11887e+07
-1.13111e+07
-848730
-9.28542e+06
-1.63821e+06
-4.50695e+06
-2.03644e+06
-1.49849e+06
-1.98334e+06
-3.36401e+06
-1.59979e+06
-9.28598e+06
-7.17048e+06
-8.46602e+06
-9.75791e+06
-2.45706e+06
-8.44464e+06
-1.07296e+07
-1.1327e+07
-1.14986e+07
-5.1e+06
-7.60282e+06
-6.90363e+06
-1.0399e+07
-1.04546e+07
-1.10995e+07
-9.22785e+06
-3.68156e+06
-8.36361e+06
-2.06838e+06
-7.47513e+06
-6.37065e+06
-1.07272e+07
-8.38164e+06
-1.0479e+07
-8.11029e+06
-9.75939e+06
-9.35147e+06
-6.13194e+06
-1.07855e+07
-1.57201e+06
-8.42918e+06
-5.63849e+06
-1.89216e+06
-2.15616e+06
-4.8572e+06
-3.3298e+06
-2.30847e+06
-4.41292e+06
-6.99102e+06
-9.91254e+06
-6.23203e+06
-8.08105e+06
-4.72519e+06
-4.16234e+06
-8.98219e+06
-9.99295e+06
-7.08757e+06
-4.88614e+06
-6.83916e+06
-1.07102e+07
-6.17133e+06
-8.68642e+06
-9.60327e+06
-1.16231e+06
-6.94659e+06
-9.90872e+06
-1.07781e+07
-1.08972e+07
-7.59728e+06
-4.23246e+06
-4.6538e+06
-1.12064e+07
-1.0065e+07
-9.56305e+06
-8.61218e+06
-2.00819e+06
-1.29152e+06
-9.96016e+06
-5.16192e+06
-3.52275e+06
-4.41995e+06
-7.417e+06
-8.09392e+06
-6.23117e+06
-4.52821e+06
-4.23858e+06
-5.72279e+06
-8.83917e+06
-6.23121e+06
-2.77145e+06
-4.39161e+06
-2.16706e+06
-6.87739e+06
-5.89348e+06
-1.02132e+07
-9.83949e+06
-2.74803e+06
-1.85275e+06
-2.29361e+06
-1.05105e+07
-3.3899e+06
-8.07417e+06
-1.07185e+07
-3.97573e+06
-2.78778e+06
-6.086e+06
-5.79285e+06
-3.18856e+06
-1.19358e+06
-5.92422e+06
-8.12016e+06
-2.95957e+06
-1.03432e+07
-6.30355e+06
-1.41934e+06
-83248.8
-6.68237e+06
-9.43858e+06
-1.03367e+07
-3.36893e+06
-1.03741e+07
-2.1702e+06
-3.7921e+06
-5.97162e+06
-2.32091e+06
-1.45428e+06
-3.55352e+06
-7.61727e+06
-8.73981e+06
-6.1397e+06
-6.19639e+06
-6.60935e+06
-8.99686e+06
-2.25488e+06
-1.4291e+06
-6.5803e+06
-6.62945e+06
-1.13073e+07
-9.37861e+06
-1.15086e+07
-1.49596e+06
-4.83608e+06
-7.51618e+06
-3.56013e+06
-4.78164e+06
-7.80835e+06
-4.30288e+06
-6.39574e+06
-1.504e+06
-2.27772e+06
-9.20638e+06
-5.50064e+06
-8.78091e+06
-1.05648e+07
-8.31884e+06
-7.30755e+06
-1.05217e+07
-8.65997e+06
-9.55524e+06
-8.92771e+06
-6.81879e+06
-7.61487e+06
-1.01895e+07
-1.04484e+07
-9.9216e+06
-8.50286e+06
-3.12164e+06
-8.88747e+06
-8.92841e+06
-7.72852e+06
-4.2228e+06
-4.39159e+06
-7.06084e+06
-1.04466e+07
-1.06399e+07
-3.67142e+06
-3.34923e+06
-2.36858e+06
-1.45209e+06
-2.62169e+06
-1.73539e+06
-7.16375e+06
-9.86654e+06
-1.03553e+07
-9.70021e+06
-8.05969e+06
-1.03675e+07
-7.76882e+06
-4.61254e+06
-2.68204e+06
-9.75596e+06
-9.26755e+06
-9.81146e+06
-3.4844e+06
-1.03455e+07
-8.82518e+06
-6.79313e+06
-1.31264e+06
-4.87889e+06
-5.92924e+06
-8.16686e+06
-1.83036e+06
-876974
-1.0689e+07
-1.03068e+07
-9.98346e+06
-8.49237e+06
-4.7139e+06
-1.02532e+07
-6.09752e+06
-6.0506e+06
-7.20897e+06
-8.18436e+06
-5.50934e+06
-5.96068e+06
-4.07534e+06
-1.08842e+07
-8.92964e+06
-2.38847e+06
-1.50442e+06
-6.02387e+06
-1.94395e+06
-1.2366e+06
-6.12185e+06
-1.38972e+06
-7.58626e+06
-8.91439e+06
-1.06488e+07
-8.3567e+06
-4.905e+06
-6.04847e+06
-3.44077e+06
-5.04585e+06
-6.9929e+06
-9.69235e+06
-8.02422e+06
-4.53966e+06
-6.81359e+06
-1.14823e+06
-7.55161e+06
-7.32907e+06
-4.81938e+06
-1.01778e+07
-8.14142e+06
-7.89049e+06
-4.85621e+06
-8.08663e+06
-1.0508e+07
-1.07269e+07
-5.99899e+06
-9.67188e+06
-7.6535e+06
-7.85693e+06
-1.00706e+07
-2.14605e+06
-1.02405e+07
-7.12102e+06
-4.00774e+06
-7.89606e+06
-1.03251e+07
-1.07065e+07
-7.0124e+06
-1.07037e+07
-4.54911e+06
-2.37865e+06
-4.4959e+06
-2.12205e+06
-9.17951e+06
-1.10262e+07
-1.00518e+07
-9.88113e+06
-1.06193e+07
-8.4456e+06
-1.06205e+07
-1.03963e+07
-1.13188e+07
-1.12713e+07
-434714
-1.02949e+07
-1.04881e+07
-1.03182e+07
-1.0472e+07
-8.43343e+06
-5.57083e+06
-1.95601e+06
-8.12726e+06
-3.05154e+06
-5.58319e+06
-9.18869e+06
-1.00334e+07
-1.01959e+07
-9.55447e+06
-8.23494e+06
-8.2913e+06
-930882
-1.03331e+07
-5.30386e+06
-5.39304e+06
-3.71867e+06
-4.80615e+06
-8.03757e+06
-1.44457e+06
-5.55935e+06
-1.00761e+07
-3.27065e+06
-2.83083e+06
-4.13825e+06
-1.87305e+06
-6.31683e+06
-1.34524e+06
-5.68987e+06
-5.00169e+06
-3.42168e+06
-4.75969e+06
-2.9936e+06
-7.40299e+06
-1.09574e+07
-9.76996e+06
-9.22727e+06
-791843
-1.25881e+06
-1.00582e+07
-8.18395e+06
-3.49541e+06
-1.10852e+07
-7.81688e+06
-4.4066e+06
-9.21627e+06
-1.06942e+07
-5.13129e+06
-6.19098e+06
-6.35575e+06
-6.09943e+06
-8.73453e+06
-1.0951e+07
-1.086e+07
-7.744e+06
-4.65949e+06
-1.02394e+07
-9.41285e+06
-5.81705e+06
-1.02442e+07
-1.13318e+07
-1.14662e+07
-4.21648e+06
-3.18383e+06
-1.08235e+07
-8.51189e+06
-7.18366e+06
-8.67781e+06
-1.21754e+06
-680575
-953937
-8.14817e+06
-1.07339e+07
-9.20292e+06
-1.02264e+07
-2.61973e+06
-305882
-474381
-8.44657e+06
-1.71322e+06
-1.07251e+07
-1.08186e+07
-8.78129e+06
-672421
-5.77813e+06
-1.08812e+07
-5.15294e+06
-2.95844e+06
-1.98547e+06
-7.8098e+06
-6.25174e+06
-3.92935e+06
-3.51485e+06
-1.03631e+07
-8.78164e+06
-6.63546e+06
-1.00884e+07
-5.32357e+06
-4.36548e+06
-1.2785e+06
-9.53937e+06
-1.08026e+07
-9.05793e+06
-651647
-383379
-2.33153e+06
-8.89444e+06
-5.17495e+06
-8.58893e+06
-3.52477e+06
-1.03813e+07
-6.24292e+06
-8.40708e+06
-9.48651e+06
-3.89817e+06
-7.80292e+06
-6.00239e+06
-1.03668e+07
-1.03621e+07
-1.39342e+06
-742094
-1.13291e+06
-9.25113e+06
-6.17958e+06
-8.06778e+06
-9.22789e+06
-6.29203e+06
-7.46522e+06
-4.99685e+06
-4.44902e+06
-5.83183e+06
-6.73735e+06
-1.04053e+07
-9.53216e+06
-8.9696e+06
-2.07949e+06
-1.2364e+06
-2.34996e+06
-1.05487e+07
-9.98313e+06
-1.1031e+07
-7.91787e+06
-1.0063e+07
-2.98757e+06
-7.88806e+06
-5.76621e+06
-451423
-670639
-7.46089e+06
-4.27757e+06
-8.03755e+06
-7.10202e+06
-5.90886e+06
-7.92465e+06
-9.98638e+06
-1.12456e+07
-644116
-4.10642e+06
-7.44766e+06
-6.64151e+06
-9.15383e+06
-2.88686e+06
-1.07197e+07
-8.45377e+06
-1.04429e+07
-1.07205e+07
-9.11821e+06
-9.70164e+06
-2.05903e+06
-5.84584e+06
-1.03395e+07
-1.12444e+07
-3.58774e+06
-2.00445e+06
-660423
-7.53622e+06
-5.09502e+06
-3.29098e+06
-1.53624e+06
-4.12592e+06
-6.01042e+06
-1.60133e+06
-1.9497e+06
-5.62115e+06
-3.7834e+06
-1.64576e+06
-2.40731e+06
-1.83998e+06
-1.02625e+07
-6.82032e+06
-3.98204e+06
-1.06765e+07
-9.68916e+06
-1.12254e+07
-1.71729e+06
-1.60665e+06
-4.17707e+06
-4.25858e+06
-7.34601e+06
-9.80022e+06
-6.14988e+06
-7.10949e+06
-5.19937e+06
-8.51067e+06
-6.45891e+06
-6.44524e+06
-9.12832e+06
-1.00636e+07
-2.21199e+06
-1.32303e+06
-4.28802e+06
-5.01284e+06
-6.31797e+06
-2.68987e+06
-4.45502e+06
-1.25016e+06
-7.80697e+06
-3.23686e+06
-5.6319e+06
-1.07519e+06
-5.34786e+06
-7.44363e+06
-3.69884e+06
-5.70014e+06
-4.21548e+06
-7.33852e+06
-6.48511e+06
-5.82508e+06
-8.15278e+06
-1.76035e+06
-1.03806e+07
-3.28347e+06
-1.09551e+07
-9.04347e+06
-1.6913e+06
-6.68903e+06
-3.02372e+06
-5.16164e+06
-3.22406e+06
-3.62246e+06
-5.55729e+06
-7.23747e+06
-8.84084e+06
-5.38921e+06
-3.64357e+06
-8.68416e+06
-1.02711e+07
-8.27523e+06
-8.2809e+06
-4.6783e+06
-6.31262e+06
-3.54664e+06
-9.37806e+06
-1.09996e+07
-5.09848e+06
-673359
-7.70378e+06
-6.34328e+06
-796752
-1.1702e+06
-6.15663e+06
-9.27336e+06
-4.89675e+06
-6.68273e+06
-1.04207e+07
-7.80839e+06
-1.03443e+06
-8.73169e+06
-5.63523e+06
-3.4054e+06
-2.14088e+06
-9.40519e+06
-6.64289e+06
-4.69979e+06
-9.66896e+06
-4.23911e+06
-1.02258e+07
-4.87918e+06
-7.61753e+06
-5.64307e+06
-2.50218e+06
-2.43341e+06
-5.44541e+06
-7.83797e+06
-3.17014e+06
-3.55241e+06
-1.00853e+07
-9.68888e+06
-1.09465e+07
-9.8284e+06
-2.48834e+06
-9.45288e+06
-6.83173e+06
-8.99843e+06
-1.08923e+07
-1.06706e+07
-1.10938e+07
-1.11552e+07
-6.22694e+06
-3.40255e+06
-4.96864e+06
-1.069e+07
-1.04738e+07
-1.03422e+07
-1.83867e+06
-1.06762e+07
-1.03212e+07
-7.22301e+06
-1.02656e+07
-9.6039e+06
-5.26133e+06
-2.54429e+06
-1.51032e+06
-7.94465e+06
-2.17853e+06
-2.03374e+06
-5.3746e+06
-9.35885e+06
-7.50713e+06
-2.93953e+06
-9.44508e+06
-4.28329e+06
-7.50914e+06
-9.28493e+06
-1.06937e+07
-1.12843e+07
-1.10342e+07
-8.63673e+06
-9.32751e+06
-1.0502e+07
-1.06299e+07
-1.3437e+06
-7.59109e+06
-9.67778e+06
-251680
-5.08842e+06
-9.68363e+06
-3.49864e+06
-6.33328e+06
-9.0635e+06
-8.89557e+06
-1.97899e+06
-2.88902e+06
-2.83244e+06
-5.38497e+06
-7.50545e+06
-8.82871e+06
-6.66623e+06
-1.65135e+06
-8.61702e+06
-9.59422e+06
-7.86465e+06
-3.13517e+06
-4.57114e+06
-1.26815e+06
-4.30461e+06
-3.72786e+06
-1.04894e+07
-8.55826e+06
-9.3474e+06
-8.62722e+06
-3.46786e+06
-2.34191e+06
-7.06982e+06
-1.0897e+07
-1.0909e+07
-7.25237e+06
-1.11681e+07
-1.04053e+07
-3.10576e+06
-2.05498e+06
-4.39912e+06
-4.58968e+06
-8.7386e+06
-7.81597e+06
-7.20705e+06
-9.87549e+06
-1.12476e+07
-7.74027e+06
-8.69801e+06
-1.06425e+07
-2.41334e+06
-1.41347e+06
-7.4962e+06
-3.45166e+06
-5.41624e+06
-6.12229e+06
-9.99558e+06
-6.26522e+06
-1.09206e+07
-1.09505e+07
-8.75775e+06
-1.03445e+07
-7.42268e+06
-7.20045e+06
-1.04405e+07
-8.89325e+06
-4.7393e+06
-3.19398e+06
-1.04804e+07
-1.10601e+07
-1.82557e+06
-4.07462e+06
-7.24005e+06
-9.30095e+06
-1.03132e+07
-1.0706e+07
-5.92849e+06
-3.89228e+06
-8.03399e+06
-9.41516e+06
-9.42985e+06
-3.71067e+06
-5.52363e+06
-1.08823e+07
-1.07808e+07
-2.96175e+06
-9.20944e+06
-7.95885e+06
-2.83741e+06
-4.05937e+06
-9.78235e+06
-5.63214e+06
-9.27351e+06
-9.61744e+06
-9.80535e+06
-1.15568e+07
-6.0305e+06
-6.48334e+06
-9.95095e+06
-9.42809e+06
-773547
-535412
-1.01085e+07
-4.17853e+06
-3.95729e+06
-1.02302e+07
-1.09769e+07
-9.2314e+06
-2.2129e+06
-1.47588e+06
-9.94554e+06
-5.94883e+06
-3.70883e+06
-2.24144e+06
-7.88105e+06
-9.81893e+06
-4.26417e+06
-4.12432e+06
-6.50041e+06
-4.30044e+06
-8.10377e+06
-1.06708e+07
-6.01856e+06
-5.37168e+06
-7.4748e+06
-1.01443e+07
-8.31531e+06
-9.82989e+06
-2.51884e+06
-1.89441e+06
-1.01329e+07
-1.03201e+07
-680615
-424244
-8.09298e+06
-1.00979e+07
-7.30519e+06
-854145
-570101
-7.44528e+06
-1.02933e+07
-8.88589e+06
-6.68114e+06
-3.3394e+06
-1.0414e+06
-3.79934e+06
-8.8909e+06
-1.01883e+07
-8.50546e+06
-6.39302e+06
-3.13512e+06
-1.05697e+07
-1.64528e+06
-8.23264e+06
-5.02051e+06
-6.99481e+06
-1.01983e+07
-1.07233e+07
-3.33713e+06
-3.71001e+06
-9.29873e+06
-8.12525e+06
-2.86823e+06
-3.29606e+06
-1.3407e+06
-1.07291e+07
-5.52287e+06
-1.07097e+07
-1.07691e+07
-8.2845e+06
-1.88292e+06
-1.64871e+06
-1.03805e+07
-8.32753e+06
-7.66563e+06
-9.66917e+06
-9.54222e+06
-9.31777e+06
-4.53902e+06
-7.69822e+06
-6.90845e+06
-6.93537e+06
-4.52614e+06
-9.15854e+06
-1.05057e+07
-1.11338e+07
-1.13072e+07
-7.25151e+06
-3.93261e+06
-6.00972e+06
-1.09414e+06
-4.51126e+06
-3.18544e+06
-7.53011e+06
-4.79826e+06
-8.41386e+06
-1.03685e+07
-1.48902e+06
-9.79992e+06
-1.71243e+06
-4.05287e+06
-3.90483e+06
-2.34865e+06
-7.76301e+06
-5.26775e+06
-9.74795e+06
-7.74251e+06
-408487
-319506
-9.91677e+06
-6.22494e+06
-9.91383e+06
-5.45083e+06
-7.81378e+06
-8.59313e+06
-6.23197e+06
-1.06888e+07
-1.74723e+06
-521076
-979556
-2.12868e+06
-3.20852e+06
-9.69165e+06
-4.30951e+06
-3.54993e+06
-3.70012e+06
-6.51316e+06
-1.45768e+06
-5.94301e+06
-8.96091e+06
-1.10022e+06
-6.55114e+06
-9.04438e+06
-1.00009e+07
-7.21713e+06
-9.59289e+06
-1.1154e+07
-1.01541e+07
-8.53645e+06
-9.6498e+06
-8.47459e+06
-1.63699e+06
-2.48362e+06
-3.11047e+06
-6.52201e+06
-3.93276e+06
-1.03844e+07
-6.95848e+06
-1.00183e+07
-2.09154e+06
-7.53072e+06
-5.7636e+06
-3.57594e+06
-1.16498e+07
-3.84241e+06
-7.86798e+06
-6.01637e+06
-1.63167e+06
-1.06431e+06
-1.55894e+06
-1.02307e+07
-2.1463e+06
-1.05325e+07
-4.52346e+06
-5.62444e+06
-7.12475e+06
-4.00632e+06
-6.58466e+06
-1.02644e+07
-9.97982e+06
-3.71616e+06
-2.4998e+06
-7.13363e+06
-1.02252e+07
-1.03236e+07
-4.9311e+06
-8.0447e+06
-2.09713e+06
-803692
-2.7355e+06
-1.06926e+07
-2.66164e+06
-1.80355e+06
-7.27693e+06
-7.4e+06
-1.42567e+06
-3.98297e+06
-7.08257e+06
-7.14497e+06
-4.05621e+06
-6.89903e+06
-784828
-4.55624e+06
-7.68022e+06
-7.48329e+06
-8.04097e+06
-5.97348e+06
-6.3864e+06
-1.6329e+06
-2.0378e+06
-3.41057e+06
-2.11361e+06
-3.20416e+06
-8.89041e+06
-7.89241e+06
-1.58453e+06
-1.0027e+06
-2.5413e+06
-1.48954e+06
-8.7811e+06
-1.06859e+07
-3.83779e+06
-2.66124e+06
-4.1353e+06
-7.2537e+06
-1.06926e+07
-1.59178e+06
-2.56651e+06
-1.08415e+06
-1.03426e+07
-1.11788e+07
-6.4586e+06
-7.39238e+06
-3.21716e+06
-8.33516e+06
-4.18342e+06
-4.51011e+06
-8.76706e+06
-7.80676e+06
-9.08416e+06
-5.88692e+06
-2.98098e+06
-9.52884e+06
-8.62013e+06
-1.00348e+07
-1.02067e+07
-2.66756e+06
-3.97874e+06
-4.67274e+06
-829716
-1.10597e+07
-1.11204e+07
-2.45982e+06
-4.26005e+06
-7.1929e+06
-3.88963e+06
-7.2096e+06
-5.5135e+06
-3.18886e+06
-7.3249e+06
-9.10937e+06
-7.11401e+06
-8.92191e+06
-2.36474e+06
-5.96249e+06
-425136
-5.87863e+06
-8.8949e+06
-1.0227e+07
-8.96202e+06
-6.26206e+06
-9.67306e+06
-1.11802e+06
-7.31004e+06
-4.22174e+06
-6.67573e+06
-6.49255e+06
-3.77729e+06
-5.88593e+06
-4.67329e+06
-7.2073e+06
-1.06443e+07
-3.8907e+06
-3.9077e+06
-7.89142e+06
-1.009e+07
-7.92405e+06
-8.74865e+06
-6.19871e+06
-8.99291e+06
-1.06229e+07
-1.08222e+07
-3.77606e+06
-6.3735e+06
-6.95591e+06
-4.5758e+06
-5.98969e+06
-3.8672e+06
-5.59135e+06
-1.07324e+07
-7.04626e+06
-6.50247e+06
-1.0661e+07
-9.4857e+06
-1.74375e+06
-3.04867e+06
-8.56541e+06
-7.75717e+06
-8.11714e+06
-9.12791e+06
-7.893e+06
-9.07763e+06
-1.04055e+07
-7.52235e+06
-8.99967e+06
-1.06384e+07
-3.54654e+06
-5.5672e+06
-5.67841e+06
-1.02656e+07
-1.06348e+07
-1.06878e+07
-1.04688e+07
-7.58204e+06
-5.82673e+06
-9.19565e+06
-1.06493e+07
-5.1656e+06
-1.099e+07
-4.06751e+06
-6.34237e+06
-6.64051e+06
-8.9501e+06
-6.26551e+06
-1.03915e+07
-1.05015e+07
-1.0765e+07
-3.55565e+06
-2.14264e+06
-5.63856e+06
-1.07422e+07
-9.3886e+06
-6.80849e+06
-9.6038e+06
-1.00566e+07
-6.44242e+06
-9.61509e+06
-2.85257e+06
-1.00171e+07
-3.55203e+06
-9.41111e+06
-5.58484e+06
-7.54149e+06
-1.09956e+07
-9.55564e+06
-1.06751e+07
-1.07409e+07
-1.04894e+07
-1.06023e+07
-4.42874e+06
-4.23537e+06
-1.05087e+07
-7.63022e+06
-4.16716e+06
-1.02409e+07
-231987
-365883
-8.57403e+06
-9.83238e+06
-7.69862e+06
-7.62076e+06
-1.01889e+07
-7.54132e+06
-9.2994e+06
-7.38448e+06
-6.17187e+06
-4.69941e+06
-7.24836e+06
-2.27443e+06
-9.07556e+06
-7.57537e+06
-3.06709e+06
-1.00892e+07
-5.32998e+06
-1.00258e+07
-1.00978e+07
-9.2754e+06
-1.00488e+07
-3.70534e+06
-9.27363e+06
-8.5888e+06
-8.77478e+06
-8.39932e+06
-5.77606e+06
-9.58238e+06
-5.85587e+06
-8.82472e+06
-6.63319e+06
-1.05622e+06
-7.91591e+06
-9.81528e+06
-1.02291e+07
-6.2389e+06
-3.54036e+06
-9.53806e+06
-5.9171e+06
-6.05679e+06
-1.09035e+07
-1.08492e+07
-4.91937e+06
-9.14606e+06
-5.57668e+06
-1.08017e+07
-8.39078e+06
-3.64546e+06
-1.0649e+07
-1.04693e+07
-9.76444e+06
-1.12254e+07
-3.35431e+06
-4.92357e+06
-3.94668e+06
-384236
-719710
-8.82725e+06
-6.13606e+06
-3.90374e+06
-1.88521e+06
-4.91709e+06
-7.95927e+06
-5.12411e+06
-9.01612e+06
-4.1031e+06
-2.81014e+06
-1.11349e+07
-1.03034e+07
-3.47132e+06
-4.42598e+06
-1.09499e+07
-1.11503e+07
-9.50988e+06
-1.11956e+07
-5.30679e+06
-5.7902e+06
-833321
-1.36518e+06
-5.36506e+06
-6.33321e+06
-3.67396e+06
-573215
-816883
-9.48457e+06
-9.16187e+06
-3.55403e+06
-2.34417e+06
-1.16276e+07
-1.03418e+07
-7.85135e+06
-1.95238e+06
-8.09896e+06
-4.52954e+06
-370552
-1.02111e+06
-2.4938e+06
-1.68507e+06
-7.4336e+06
-848123
-1.52765e+06
-455182
-5.23953e+06
-3.6131e+06
-559564
-9.55765e+06
-844750
-1.45656e+06
-3.71847e+06
-4.02268e+06
-8.12786e+06
-7.72504e+06
-8.09554e+06
-1.07015e+07
-4.09295e+06
-6.75153e+06
-4.85354e+06
-6.77587e+06
-8.32604e+06
-7.40049e+06
-1.02898e+07
-4.13515e+06
-3.46381e+06
-1.07254e+07
-3.57617e+06
-1.04815e+07
-9.03108e+06
-9.79707e+06
-1.59728e+06
-1.04545e+07
-5.21197e+06
-8.20472e+06
-1.01178e+07
-9.23756e+06
-1.06804e+07
-1.06886e+07
-8.72779e+06
-8.68584e+06
-8.71719e+06
-5.14355e+06
-3.46453e+06
-6.60386e+06
-4.86484e+06
-8.27527e+06
-1.0627e+07
-9.72729e+06
-7.53732e+06
-9.56797e+06
-3.41984e+06
-5.32427e+06
-1.00886e+07
-7.42127e+06
-707887
-3.18981e+06
-5.71611e+06
-7.76848e+06
-7.84142e+06
-1.09101e+06
-9.0561e+06
-1.88636e+06
-8.78774e+06
-7.89449e+06
-5.06816e+06
-8.06173e+06
-4.48888e+06
-8.66113e+06
-6.27875e+06
-3.58657e+06
-2.39052e+06
-5.14821e+06
-8.96798e+06
-5.42473e+06
-1.0791e+07
-643820
-4.25237e+06
-2.71671e+06
-4.8271e+06
-4.03046e+06
-4.08535e+06
-4.46264e+06
-9.60657e+06
-6.94573e+06
-3.92284e+06
-8.10165e+06
-2.21826e+06
-3.93206e+06
-1.04034e+07
-4.31656e+06
-7.67952e+06
-4.56711e+06
-7.035e+06
-1.05176e+07
-6.14544e+06
-8.90762e+06
-4.89951e+06
-7.28377e+06
-9.36988e+06
-9.60412e+06
-1.10544e+07
-2.98566e+06
-4.72225e+06
-6.61634e+06
-6.09664e+06
-3.88223e+06
-6.86365e+06
-9.92881e+06
-608834
-857012
-9.78073e+06
-7.81272e+06
-3.5621e+06
-6.42989e+06
-1.03666e+07
-1.32584e+06
-6.17167e+06
-450505
-1.75409e+06
-2.73427e+06
-9.08302e+06
-7.08686e+06
-9.99111e+06
-2.1766e+06
-1.35565e+06
-3.51111e+06
-7.72878e+06
-5.1604e+06
-6.61923e+06
-4.72622e+06
-8.72822e+06
-6.33135e+06
-6.61838e+06
-1.07176e+07
-1.59232e+06
-5.95622e+06
-7.05992e+06
-1.10653e+07
-1.11371e+07
-2.42544e+06
-4.15671e+06
-3.8545e+06
-9.40741e+06
-7.93187e+06
-1.98819e+06
-7.55788e+06
-5.57702e+06
-4.12962e+06
-2.84385e+06
-2.49758e+06
-1.07318e+07
-596655
-1.9029e+06
-1.22457e+06
-1.50825e+06
-7.69222e+06
-6.8946e+06
-9.64014e+06
-1.12829e+07
-1.0742e+07
-7.06656e+06
-1.02983e+07
-8.12291e+06
-843963
-406933
-586476
-5.67302e+06
-9.80355e+06
-9.06837e+06
-1.04491e+07
-7.8934e+06
-9.35032e+06
-8.36664e+06
-1.01799e+07
-5.05587e+06
-6.24511e+06
-1.00484e+07
-4.62873e+06
-2.12381e+06
-5.77745e+06
-4.88517e+06
-6.26474e+06
-3.71448e+06
-9.96302e+06
-3.11006e+06
-5.80357e+06
-3.71205e+06
-5.57025e+06
-6.29936e+06
-7.21295e+06
-5.23869e+06
-7.52397e+06
-8.64241e+06
-5.55824e+06
-7.54562e+06
-2.20671e+06
-3.23197e+06
-4.77819e+06
-3.56207e+06
-2.54384e+06
-5.42756e+06
-7.57195e+06
-6.88439e+06
-4.42904e+06
-3.93571e+06
-8.12059e+06
-823370
-3.83495e+06
-2.55293e+06
-4.58439e+06
-1.61285e+06
-3.4656e+06
-2.27971e+06
-1.05546e+07
-4.42232e+06
-3.00657e+06
-4.07351e+06
-6.49046e+06
-1.02082e+07
-7.74698e+06
-5.7363e+06
-6.5569e+06
-3.94033e+06
-6.37982e+06
-1.10118e+07
-9.08147e+06
-2.55868e+06
-1.70526e+06
-5.2793e+06
-5.15921e+06
-7.06579e+06
-9.10022e+06
-7.05143e+06
-3.71206e+06
-698290
-1.89128e+06
-1.02517e+06
-6.31175e+06
-4.19523e+06
-7.00584e+06
-3.35387e+06
-2.11959e+06
-1.03376e+07
-1.75119e+06
-4.53193e+06
-1.11407e+07
-9.77976e+06
-8.78153e+06
-7.04891e+06
-5.69479e+06
-1.02486e+06
-654986
-1.10442e+07
-1.00185e+07
-4.69551e+06
-5.16729e+06
-8.81291e+06
-5.52e+06
-829741
-1.3459e+06
-5.75429e+06
-1.053e+07
-6.37646e+06
-8.7395e+06
-5.9389e+06
-5.69175e+06
-8.1231e+06
-7.25827e+06
-8.19848e+06
-4.88355e+06
-8.6488e+06
-1.02005e+07
-8.90153e+06
-9.30272e+06
-8.52567e+06
-1.0171e+07
-1.0584e+07
-1.07372e+07
-1.1697e+06
-3.16062e+06
-2.16968e+06
-3.22644e+06
-7.21851e+06
-1.09006e+07
-2.03346e+06
-4.46321e+06
-4.81928e+06
-7.85308e+06
-1.04351e+07
-8.96927e+06
-6.03052e+06
-9.62718e+06
-8.70479e+06
-9.90204e+06
-6.50073e+06
-8.64373e+06
-6.92104e+06
-9.69884e+06
-6.40715e+06
-1.06783e+07
-7.42569e+06
-5.45305e+06
-8.42984e+06
-5.7885e+06
-3.83572e+06
-5.4066e+06
-1.03686e+07
-1.06928e+07
-8.1095e+06
-1.0003e+07
-8.1442e+06
-5.95621e+06
-3.28114e+06
-3.64687e+06
-2.81349e+06
-4.55868e+06
-9.15136e+06
-4.13318e+06
-3.4452e+06
-8.39979e+06
-6.23656e+06
-9.2236e+06
-1.01838e+07
-1.00633e+07
-7.27611e+06
-2.90465e+06
-9.92198e+06
-1.54085e+06
-2.34343e+06
-1.067e+07
-9.34148e+06
-1.06473e+07
-9.96594e+06
-6.62038e+06
-867556
-1.39672e+06
-5.94359e+06
-8.15799e+06
-9.61325e+06
-1.07149e+07
-8.89297e+06
-5.95182e+06
-5.57896e+06
-4.75352e+06
-8.10816e+06
-4.54132e+06
-4.28889e+06
-1.03501e+07
-8.37986e+06
-3.22396e+06
-8.26079e+06
-5.21433e+06
-6.27713e+06
-3.37331e+06
-6.89915e+06
-9.96024e+06
-3.23884e+06
-2.49241e+06
-1.05624e+07
-8.67658e+06
-946343
-6.65489e+06
-1.01434e+07
-1.03064e+07
-8.09145e+06
-9.80632e+06
-7.23292e+06
-4.50976e+06
-2.1318e+06
-5.42971e+06
-8.186e+06
-7.40792e+06
-3.23836e+06
-9.21107e+06
-7.98253e+06
-8.36737e+06
-1.01973e+07
-7.14786e+06
-1.07203e+07
-5.1252e+06
-9.24063e+06
-1.00674e+07
-1.01735e+07
-1.77914e+06
-6.16137e+06
-7.36249e+06
-5.87153e+06
-4.52102e+06
-1.07291e+07
-6.39623e+06
-4.03184e+06
-6.83185e+06
-3.14047e+06
-9.32179e+06
-8.35554e+06
-3.6184e+06
-8.20081e+06
-7.81566e+06
-8.74332e+06
-6.46316e+06
-9.15e+06
-1.79945e+06
-8.67315e+06
-6.7032e+06
-1.07143e+07
-3.42156e+06
-8.07221e+06
-5.92532e+06
-8.56722e+06
-17690.3
-72014.7
-3.04485e+06
-5.25247e+06
-7.20881e+06
-6.58631e+06
-809259
-557103
-2.26605e+06
-4.3071e+06
-8.88166e+06
-5.25158e+06
-8.66724e+06
-7.04378e+06
-6.95278e+06
-9.6504e+06
-7.53234e+06
-9.59448e+06
-1.01407e+07
-2.23036e+06
-1.08071e+07
-8.46975e+06
-7.8542e+06
-7.94194e+06
-2.88708e+06
-1.82001e+06
-1.51322e+06
-1.09152e+07
-8.70788e+06
-8.4583e+06
-9.59708e+06
-4.29022e+06
-1.08819e+07
-1.0736e+07
-3.0694e+06
-5.49182e+06
-7.94234e+06
-6.11731e+06
-1.09918e+07
-7.67247e+06
-1.06631e+07
-1.04142e+07
-2.78547e+06
-9.5067e+06
-4.80052e+06
-9.61683e+06
-6.31326e+06
-4.74755e+06
-1.3394e+06
-2.0791e+06
-8.40767e+06
-6.48795e+06
-1.26665e+06
-810608
-8.68677e+06
-9.89488e+06
-4.62647e+06
-9.25835e+06
-273867
-240092
-5.8032e+06
-3.30052e+06
-1.74334e+06
-1.07225e+07
-3.41834e+06
-2.25242e+06
-9.94391e+06
-7.92157e+06
-9.34266e+06
-7.56068e+06
-4.86686e+06
-6.96483e+06
-9.4394e+06
-9.38514e+06
-7.12105e+06
-4.5481e+06
-4.18304e+06
-3.38156e+06
-6.35651e+06
-4.498e+06
-7.70056e+06
-9.72933e+06
-7.37558e+06
-1.05545e+07
-8.66809e+06
-9.39811e+06
-3.80087e+06
-8.0245e+06
-9.87258e+06
-3.74178e+06
-2.20911e+06
-3.84435e+06
-8.43581e+06
-6.47995e+06
-7.65117e+06
-3.58685e+06
-2.61432e+06
-7.3852e+06
-9.66994e+06
-3.33678e+06
-1.03999e+07
-7.76419e+06
-1.35122e+06
-5.2573e+06
-8.84764e+06
-626231
-9.91963e+06
-9.04786e+06
-7.14107e+06
-4.39967e+06
-7.90887e+06
-5.24951e+06
-9.24491e+06
-1.03246e+06
-1.64173e+06
-4.75276e+06
-7.39465e+06
-1.07289e+07
-1.14325e+06
-1.025e+07
-8.591e+06
-5.775e+06
-8.71593e+06
-1.07147e+07
-1.06141e+07
-1.06709e+07
-5.94086e+06
-3.47931e+06
-2.29667e+06
-5.6121e+06
-1.0735e+07
-2.94646e+06
-2.38147e+06
-7.43983e+06
-1.10145e+07
-9.94131e+06
-6.99354e+06
-6.51298e+06
-4.63268e+06
-1.04676e+07
-1.03432e+07
-4.47116e+06
-5.49064e+06
-6.77078e+06
-4.9166e+06
-1.66422e+06
-2.65917e+06
-3.394e+06
-1.70805e+06
-5.44353e+06
-7.73044e+06
-7.46915e+06
-201783
-341814
-3.64886e+06
-8.72239e+06
-5.26698e+06
-4.20807e+06
-4.08955e+06
-7.98837e+06
-299179
-454183
-1.07278e+07
-1.04377e+07
-1.08832e+07
-2.87823e+06
-221732
-7.98901e+06
-9.44935e+06
-9.99926e+06
-9.28229e+06
-8.69359e+06
-9.68531e+06
-7.48393e+06
-5.50664e+06
-2.15538e+06
-4.9511e+06
-1.70882e+06
-1.06623e+07
-1.0072e+07
-7.38728e+06
-1.05372e+07
-6.55203e+06
-9.5043e+06
-8.15141e+06
-7.98398e+06
-9.18562e+06
-634193
-1.05418e+07
-3.91943e+06
-1.12779e+07
-1.07387e+07
-4.5695e+06
-7.47315e+06
-9.82021e+06
-1.04548e+07
-7.62617e+06
-6.0117e+06
-1.16242e+06
-8.10275e+06
-5.04549e+06
-7.46578e+06
-6.20372e+06
-5.17296e+06
-1.04519e+07
-4.76241e+06
-5.87939e+06
-2.59736e+06
-5.5833e+06
-6.12789e+06
-9.47897e+06
-8.97997e+06
-3.2563e+06
-3.06676e+06
-898356
-9.14423e+06
-2.67042e+06
-5.14435e+06
-3.54781e+06
-6.55102e+06
-8.688e+06
-7.97516e+06
-6.19793e+06
-4.82074e+06
-7.5589e+06
-7.77521e+06
-1.07716e+07
-8.97584e+06
-5.45881e+06
-8.44122e+06
-7.12699e+06
-3.67306e+06
-6.64732e+06
-8.76884e+06
-9.44095e+06
-6.05853e+06
-8.63429e+06
-7.79514e+06
-8.60899e+06
-4.64335e+06
-7.41609e+06
-4.50113e+06
-6.81243e+06
-1.05771e+07
-9.75594e+06
-5.30297e+06
-6.48092e+06
-3.29579e+06
-7.72456e+06
-7.33363e+06
-5.95569e+06
-3.92664e+06
-9.27463e+06
-8.79325e+06
-6.78226e+06
-3.70219e+06
-4.45241e+06
-8.07362e+06
-5.18358e+06
-1.06114e+07
-9.45275e+06
-8.08446e+06
-1.00329e+07
-3.29164e+06
-5.46463e+06
-7.91664e+06
-8.22812e+06
-5.12928e+06
-546786
-1.04045e+07
-9.57974e+06
-9.71599e+06
-6.13263e+06
-8.12087e+06
-3.50563e+06
-5.07727e+06
-7.10531e+06
-1.83896e+06
-2.00324e+06
-2.73909e+06
-992870
-7.78054e+06
-483030
-7.72561e+06
-2.58052e+06
-3.80595e+06
-3.95564e+06
-2.25186e+06
-3.65417e+06
-1.062e+07
-4.02111e+06
-7.82214e+06
-4.9104e+06
-2.09966e+06
-9.38347e+06
-6.84064e+06
-1.80868e+06
-1.00984e+07
-1.47584e+06
-986730
-7.04119e+06
-3.03591e+06
-1.02668e+07
-9.31794e+06
-1.07624e+07
-8.09893e+06
-4.86112e+06
-5.9815e+06
-9.58557e+06
-1.07669e+07
-1.64669e+06
-5.78667e+06
-9.16931e+06
-4.56728e+06
-1.14104e+06
-1.07129e+07
-9.70765e+06
-1.06453e+07
-8.6248e+06
-1.03712e+07
-7.72694e+06
-3.34703e+06
-8.54974e+06
-5.75738e+06
-8.18291e+06
-5.9989e+06
-1.8229e+06
-8.45523e+06
-1.03491e+06
-1.10156e+07
-9.14312e+06
-2.53951e+06
-4.55343e+06
-7.3171e+06
-8.79625e+06
-1.05633e+07
-1.13325e+07
-1.13656e+06
-7.93162e+06
-5.51063e+06
-933914
-1.02317e+07
-4.638e+06
-1.03658e+07
-1.09239e+07
-7.55624e+06
-1.07251e+07
-7.95552e+06
-7.66194e+06
-3.82109e+06
-7.55038e+06
-2.82198e+06
-1.07054e+07
-3.96254e+06
-1.09357e+07
-4.09319e+06
-2.44965e+06
-3.12879e+06
-1.0562e+07
-9.81377e+06
-3.33313e+06
-2.08475e+06
-1.75328e+06
-1.02304e+07
-9.89298e+06
-8.912e+06
-9.91265e+06
-6.8575e+06
-4.75251e+06
-7.38752e+06
-4.12405e+06
-2.79154e+06
-3.64778e+06
-5.3958e+06
-8.19067e+06
-3.34287e+06
-6.94792e+06
-9.98657e+06
-5.26761e+06
-5.90067e+06
-8.41222e+06
-1.06923e+07
-1.02495e+07
-4.36385e+06
-5.90586e+06
-8.5983e+06
-1.9511e+06
-7.56198e+06
-6.97895e+06
-1.06001e+07
-3.72487e+06
-9.73161e+06
-7.25573e+06
-6.52111e+06
-1.11546e+07
-1.79134e+06
-2.82786e+06
-9.52394e+06
-900287
-1.47278e+06
-7.39842e+06
-5.26452e+06
-5.04211e+06
-7.45479e+06
-9.86671e+06
-2.79785e+06
-4.42937e+06
-1.07104e+07
-3.9327e+06
-4.1641e+06
-7.84812e+06
-4.95837e+06
-9.90305e+06
-1.25477e+06
-1.90117e+06
-1.06609e+07
-2.73275e+06
-9.56446e+06
-1.02974e+07
-1.02994e+07
-1.14986e+07
-4.35585e+06
-8.15227e+06
-4.98785e+06
-3.63915e+06
-9.62152e+06
-7.40739e+06
-2.87543e+06
-1.11702e+07
-7.28837e+06
-4.2549e+06
-4.3572e+06
-6.35751e+06
-2.90487e+06
-7.45989e+06
-1.02196e+07
-6.98307e+06
-1.06886e+07
-5.05514e+06
-6.86149e+06
-8.95088e+06
-6.87517e+06
-9.11376e+06
-5.76267e+06
-2.3564e+06
-2.53622e+06
-2.56187e+06
-3.95344e+06
-3.8786e+06
-7.82758e+06
-1.03554e+07
-5.99555e+06
-8.84362e+06
-7.24532e+06
-1.59082e+06
-9.43197e+06
-1.12508e+07
-1.01743e+07
-7.32128e+06
-6.12939e+06
-7.4403e+06
-8.67495e+06
-7.19982e+06
-9.13348e+06
-7.47714e+06
-2.97984e+06
-2.58058e+06
-5.91039e+06
-4.09127e+06
-9.28172e+06
-4.17414e+06
-2.1555e+06
-3.62752e+06
-6.96124e+06
-4.97873e+06
-79524.2
-1.77944e+06
-9.50841e+06
-6.57334e+06
-3.90034e+06
-6.5223e+06
-2.88442e+06
-4.38979e+06
-8.76166e+06
-8.0516e+06
-1.01448e+07
-7.68041e+06
-3.78641e+06
-7.87304e+06
-2.65907e+06
-3.71064e+06
-3.56318e+06
-6.02015e+06
-4.25883e+06
-6.7338e+06
-8.67901e+06
-5.2073e+06
-5.57774e+06
-3.3634e+06
-8.6833e+06