/*--------------------------------*- C++ -*----------------------------------*\
  =========                 |
  \\      /  F ield         | OpenFOAM: The Open Source CFD Toolbox
   \\    /   O peration     | Website:  https://openfoam.org
    \\  /    A nd           | Version:  7
     \\/     M anipulation  |
\*---------------------------------------------------------------------------*/
FoamFile
{
    version     2.0;
    format      ascii;
    class       surfaceScalarField;
    location    "4";
    object      phi;
}
// * * * * * * * * * * * * * * * * * * * * * * * * * * * * * * * * * * * * * //

dimensions      [0 3 -1 0 0 0 0];

internalField   nonuniform List<scalar> 
97653
(
0.000650352
-0.000389695
-0.000260657
0.000488093
-0.000785422
0.000297329
-0.000849999
0.000113873
0.000736127
9.27423e-05
-0.000749874
0.000657131
0.0002714
-0.000482741
0.000211342
0.000222489
0.000292789
-0.000515278
0.000536301
0.000961523
-0.00149782
0.00027144
-0.00108069
0.000809254
-0.001079
0.00116436
-8.53659e-05
-0.00037813
0.00227534
-0.00189721
0.00019353
-0.000590791
0.000397261
0.000495456
-0.00186846
0.001373
-0.00121789
0.000722401
0.000495492
-0.00104888
0.00108077
-3.18932e-05
-0.000284189
-0.000197262
0.000481451
0.000252617
-0.00115143
0.000898817
0.000243443
0.000762777
-0.00100622
-0.000107246
7.49404e-05
3.2306e-05
-0.000243987
-0.000615238
0.000859225
0.00114153
-0.00100247
-0.000139053
-0.000420078
-0.000540258
0.000960336
-0.000937242
0.000533601
0.000403641
-0.000317002
0.000644956
-0.000327954
-0.000898886
0.00112215
-0.000223265
-0.00150832
8.76561e-05
0.00142066
0.000212993
-0.00172131
0.000755812
-0.000422693
-0.000333119
-0.000607988
-0.000588509
0.0011965
-0.00130284
0.000952288
0.000350553
0.000126955
-0.000330879
0.000203924
0.00271506
-0.000627596
-0.00208747
0.00308747
-0.000823597
-0.00226387
-0.0014927
0.00112229
0.00037041
0.000107656
0.000664643
-0.0007723
-0.000493881
-0.000232661
0.000726541
0.00133379
0.000236649
-0.00157044
-0.000104748
0.000412451
-0.000307702
0.000442284
0.00124351
-0.0016858
-0.000748709
-0.000449037
0.00119775
0.000949876
-0.000387708
-0.000562167
7.42706e-07
-0.000265466
0.000264724
0.000603274
-0.00109191
0.000488638
0.000386661
-0.00147015
0.00108349
-0.000524412
-0.000932165
0.00145658
0.000530758
0.000504933
-0.00103569
0.000621019
-0.000149123
-0.000471896
0.000760803
-0.000690381
-7.04227e-05
-0.000829127
0.00188183
-0.00105271
0.00277302
-0.00317579
0.000402771
-0.0017735
0.000841528
0.000931974
-0.00096673
-0.000504537
0.00147127
-0.000654233
0.000993808
-0.000339575
-0.000509012
0.00232244
-0.00181343
0.000654627
-0.00057339
-8.12373e-05
0.00146012
-0.000465355
-0.000994769
-0.00190449
0.000330545
0.00157395
-0.00267984
0.000392081
0.00228776
0.00178803
-0.00100092
-0.000787111
0.00177998
-0.00221802
0.000438034
-0.00017033
0.000331617
-0.000161288
0.000552151
0.000839167
-0.00139132
0.00162823
-0.00126267
-0.000365564
0.00127899
-0.00117509
-0.000103899
-0.000627915
-0.000348683
0.000976599
-0.00118679
-0.000392057
0.00157885
-8.68491e-05
0.00119967
-0.00111282
-0.000650791
-3.44136e-06
0.00156915
-0.000534067
-0.00103508
-0.000642006
0.000392521
0.000249485
-0.000810097
0.000816189
-6.09182e-06
-0.00123541
0.000268686
0.000341156
-0.000729168
0.000388012
0.00082555
0.00053677
-0.00136232
0.00193972
-0.000560304
-0.00137941
0.00169826
-0.000434187
-0.00126407
0.000867372
-0.000911558
4.41855e-05
-0.0008572
0.000437124
0.000457515
-0.000793749
0.000336234
0.000593695
-0.000371797
-0.000221898
0.00125057
-0.00132595
7.53843e-05
-0.000510544
0.00200965
-0.00149911
0.000178201
-0.000134748
-4.34537e-05
-7.6559e-05
-0.000569834
0.000646393
-0.00162987
0.000181914
0.00144795
-0.000128508
3.53238e-06
0.000124975
-0.00117162
0.00115826
1.3358e-05
-0.000767454
0.000387056
0.000380397
-0.000455178
-0.000575612
0.000879311
-0.000303699
0.00021882
-0.000308783
8.99632e-05
-0.00113413
0.000876746
0.000257384
0.000563444
0.0010647
-0.00162814
1.6478e-05
0.000557952
-0.00057443
-0.000267745
0.000125192
0.000142553
0.000608089
-0.000534588
-7.35013e-05
0.000345444
-0.000160506
-0.000184937
0.00102709
-0.00240527
0.00137818
-0.00138436
0.00182964
-0.000445281
-0.00290052
0.00483292
-0.0019324
0.000938911
3.69609e-05
-0.000975872
0.000235607
-5.19808e-05
-0.000183626
0.00114051
0.000381824
-0.00152233
-0.000684593
0.000687149
-2.55608e-06
0.000230742
-0.000187305
-4.34369e-05
-0.000757899
0.00131698
-0.000559086
0.000376207
0.000395151
-0.000771358
0.00076119
-0.00119366
0.000432475
-0.002382
0.00191004
0.000471958
-0.000597319
-0.000517281
0.0011146
0.00151806
-0.00115158
-0.000366481
0.00204932
-0.000462559
-0.00158676
-0.000922931
0.000964421
-4.14899e-05
0.000104767
-0.000282744
0.000177976
-0.00169802
0.00105237
0.000645654
0.000149011
-4.74599e-05
-0.000101551
-0.00113215
-0.00126121
0.00239336
0.000988931
-0.000874256
-0.000114675
-0.000618126
0.000761939
-0.000143813
0.00163885
-0.00144316
-0.000195688
0.00112573
-0.000942207
-0.000183521
-0.000530599
0.000360271
-0.000953711
0.00150586
0.000347763
-4.54434e-05
-0.00030232
0.000385686
-0.000434434
4.8748e-05
0.00055597
-0.000744973
0.000189003
-0.00146389
0.000252728
0.00121117
0.00012916
-0.000639758
0.000510598
0.00100536
-9.24277e-05
-0.000912933
0.000387587
-0.000792337
0.00040475
-7.88932e-05
-0.000489918
0.000568811
0.000159022
0.00106188
-0.0012209
-0.00167786
0.00160013
7.77321e-05
5.59066e-06
-0.000137349
0.000131758
0.000202952
0.000173804
-0.000376755
-0.000309753
0.00140839
-0.00109864
-0.00218914
0.000755605
0.00143354
0.00156893
-0.00119285
-0.000376073
0.000309197
-0.000654782
0.000345585
-0.00122862
0.000205797
0.00102282
0.00047176
-0.00100513
0.000533373
0.000724061
-0.00200558
0.00128152
-0.000469446
-0.000621903
0.00109135
1.47007e-05
0.000595242
-0.000609943
3.69331e-05
0.000594922
-0.000631855
0.000623093
-0.00102255
0.000399461
-0.000517449
0.00048248
3.49695e-05
0.000540701
-0.00062588
8.51786e-05
-0.00166835
-0.000480052
0.00214841
-0.00148376
0.000735052
0.000510205
-0.00116988
0.000659679
0.002237
-0.000342601
-0.0018944
-0.00136466
4.28739e-05
0.00132178
0.000389391
-0.00121499
0.000825596
-0.000105546
0.000275618
-0.000170072
0.000606604
-0.00191616
0.00130955
-0.000401759
-2.08849e-05
0.000422644
-0.000191078
0.000189755
1.32297e-06
0.00202317
-0.00240724
0.000384065
-0.000209349
0.000201938
7.41089e-06
0.000535491
0.000279888
-0.000815378
-0.00149769
0.000967417
0.000530273
0.000109724
-0.000509374
0.00039965
0.000727279
-0.00194253
0.00121525
0.000680541
-0.000291149
-0.000460495
0.000354951
0.00152433
0.000173927
0.00174647
0.000193242
-0.00104928
0.00159758
-0.000548304
0.00177047
-0.000896335
-0.000874134
-4.84207e-05
0.00110625
-0.00105783
-0.000877409
0.000707048
0.000170361
-0.000993956
0.000110893
0.000883063
-0.000684964
0.000961962
-0.000276999
0.00139551
-0.000147911
-0.0012476
-0.000406371
0.00046029
-5.3919e-05
5.43033e-06
-0.000110178
0.000120074
-0.00135921
0.00123914
-0.00132144
0.00211723
-0.000795788
0.000429909
-0.000539961
0.000110052
-0.000439013
0.00019032
0.000248693
0.00082323
-0.000629566
-0.000193665
0.000152403
7.45964e-05
-0.000226999
0.00114839
-0.00115413
5.73257e-06
0.00021398
-0.000663179
0.000449198
0.000217592
0.000381576
-0.000599168
-0.000271422
7.50682e-05
0.000196354
-0.00130111
0.00118438
0.000116726
0.000407561
-0.000440149
3.2588e-05
-0.00151961
0.000199313
0.0013203
0.00130187
-0.000954109
0.000635737
-0.000250052
0.00121083
0.000463418
-0.00167425
0.000628308
-0.00170631
0.001078
0.000772166
-0.000825763
5.35979e-05
-0.000830524
0.000158646
0.000671878
-0.000368422
0.000546624
-0.00110095
0.0010244
-0.000871249
0.000506955
0.000364295
0.00116664
-0.00121506
-0.000266872
0.00177564
-0.00150876
0.00144232
-0.00132225
-0.00130462
9.01173e-05
0.0012145
0.0011899
0.000379024
0.000758842
-0.000771329
1.24871e-05
-0.000272905
-6.9253e-05
0.000342158
1.88849e-05
0.00171003
-0.00172891
-0.000786541
0.00100413
-0.000388842
0.00011742
5.26626e-05
0.00105359
-0.000562105
0.000281066
0.000281039
0.00137047
-0.001054
-0.000316472
0.000114051
-0.000225168
0.000111116
0.00232907
-0.00167896
-0.000650109
-0.000501693
-0.000340982
0.000842674
0.00042676
-0.000456139
2.93797e-05
9.00093e-05
-0.000442822
0.000352813
-0.000458235
0.000968438
-0.00101772
0.000844742
0.000172977
-0.00106595
0.0004533
0.000612654
-0.00198879
0.00246054
0.00123858
-0.00016965
-0.00106893
0.00182866
-8.331e-05
-0.00174535
0.00111951
-0.000928916
-0.000190597
-0.000454028
0.00101747
-0.000371982
0.00038846
-0.00147133
0.000431585
0.00103975
0.000485819
-0.000916514
0.000430695
-0.00013644
0.000503578
-0.000367137
-0.000232456
-0.000816822
-0.000745711
0.00101715
0.00112733
0.000551776
-0.00167911
0.000842814
0.000817723
-0.00166054
-0.000501436
0.000383206
0.00011823
0.000104407
-0.000909085
0.000804679
0.000100226
-0.000795564
0.000695338
-0.000183584
-0.000177329
0.000360913
-4.86151e-05
-0.000142464
-0.00288781
0.000729014
0.0021588
0.000285324
-0.00077459
0.000489266
0.000446627
-3.74328e-05
-0.000409194
0.000419495
0.000324277
-0.000743772
3.75849e-05
-0.000744533
0.000706948
-0.000222678
-0.000456419
0.000679097
-0.000476093
-0.000461153
0.000497778
-0.000203734
-0.000294044
0.000544995
0.00202167
-0.00256667
-0.00118294
0.000489696
0.000693244
-0.000288334
0.000564902
-0.000276569
-0.00187537
-0.000118454
0.00199383
-6.63374e-05
-0.00107727
0.00114361
0.000593875
4.15798e-05
-0.000635455
-0.000488501
0.000197513
0.000290988
-0.000681608
0.000157823
0.000523786
0.00038868
-7.14706e-05
-0.00031721
-0.00038803
-0.000172319
0.000560349
0.00102831
-0.00159384
0.000565527
-0.00013657
-0.000425536
-0.00142586
0.00140636
1.94974e-05
0.0038988
0.00354729
-0.00744609
0.00240919
0.000416205
-0.00282539
0.00248181
-0.00319121
0.000709396
7.41808e-05
0.000124954
-0.000199135
-0.00078336
-3.30983e-05
0.000816458
0.000155681
0.0006022
-0.000757882
0.0012527
0.000586018
-0.00183872
0.00079931
-0.000518533
-0.000280778
-0.00174036
0.000880204
0.000860151
0.00384303
-0.00252615
-0.00131688
-0.000314553
0.000436606
-0.000122053
0.00101117
-0.000699508
-0.000311665
0.000822485
-5.48683e-05
-0.000767616
-0.000438274
0.000417048
2.12254e-05
-0.00038451
0.000964486
-0.000579977
-0.00200237
0.0012564
0.000745974
0.000479099
0.000365707
-0.000844806
-0.000629002
0.00153891
-0.000909907
0.000749463
-0.000601292
-0.000148171
-0.000965155
0.000434146
0.000531009
0.000115366
0.000104631
-0.000219997
-5.74754e-05
7.875e-05
-2.12746e-05
-2.26257e-05
-0.000130092
0.000152717
-0.000904577
0.0017715
-0.000866922
-0.000947362
0.00042295
0.00095863
-0.000720563
-0.000238067
-0.000147154
0.000235469
-8.83143e-05
0.000446584
0.000156689
-0.000238673
0.000625335
0.000804751
-0.000358122
-0.000399147
-0.000901959
-0.00289232
0.0011579
0.00173442
2.77512e-05
-0.000174459
0.000146708
-9.26366e-05
-0.000693163
0.000785799
-4.3861e-05
0.000879281
-0.00083542
0.000507553
0.000591444
-0.001099
0.000965466
-0.00228039
0.00131492
-0.000232757
0.000799143
-0.000566386
0.00253645
-0.00371905
0.0011826
0.00115435
-0.00147332
0.000318974
0.000655935
5.83901e-06
-0.000661774
0.000543127
0.000415504
-0.000428428
0.000281273
-0.00140326
0.000543379
0.00085988
-0.00102589
0.00100949
1.64032e-05
0.000312221
-0.000606694
0.000294474
0.000228245
0.00109692
-0.00132517
-0.000469522
0.00034035
0.000129172
-0.00222853
0.000854497
0.00137403
-0.00294201
0.00269065
0.000251358
0.000678031
-0.00147999
0.000801958
-0.000190499
-0.00199864
0.000700851
-0.000515676
-0.000185175
-0.000881937
0.000229762
0.000652174
0.000203407
0.000887873
-0.00109128
0.00107812
-0.000547359
0.000583929
3.70904e-05
-0.00116679
0.00131469
-0.000147899
0.00155414
-0.00116094
-0.000393203
-0.00055425
0.000941836
-0.000821982
0.000743089
-1.3739e-05
0.00110863
-0.00109489
-0.00102153
-0.000541831
0.00156336
0.00183233
-0.00018714
-0.00164519
0.00147785
-0.000556143
-0.000921705
-0.000220379
-0.000223536
0.000443915
0.000666448
-0.00169138
0.00102493
0.000510213
-0.00155236
0.00104215
0.00072135
-0.000891809
0.000170459
0.000567481
-0.00164934
0.00108186
-8.65588e-05
-0.00022073
0.000307289
-0.00132271
0.000526582
0.000796127
0.000995987
-0.000618771
-0.000377216
0.00087852
-0.000617233
-0.000261286
0.000242897
9.48306e-05
-0.000337727
-0.000783884
0.00039925
0.000384634
-0.00141399
-0.00214395
0.00355795
0.00173315
-0.000755361
-0.000977791
0.00080717
0.000715156
-0.00152233
0.0011436
-0.000356852
-0.000786745
0.000729489
-8.05987e-05
-0.00064889
0.000800596
-0.000716836
-8.37591e-05
-0.000615352
0.000382593
-0.00109378
0.00140461
-0.000310834
0.00151894
-0.00120497
-0.000313973
0.00050608
-0.000742379
0.000236299
-0.000516963
0.000430405
0.000219015
0.00173017
-0.00194919
0.000787205
0.000851644
0.000615817
-0.0012922
0.00067638
0.000205498
0.000289957
0.000582908
-0.00125207
0.000669162
-0.000282395
0.00056826
-0.000285866
0.00204588
-0.0010607
-0.00098518
-0.00100213
0.000352124
0.000650006
-0.000671295
-0.000562875
0.00123417
0.00030234
0.000438053
-0.000740394
0.000119835
-0.0010654
0.000945561
0.000902154
-0.000302991
-0.000599163
0.000130791
0.00027677
-0.00193669
0.000417081
-0.00275429
0.000965515
0.00178878
-0.00276942
0.00105988
0.00170954
-0.000310588
0.0010664
0.00237204
-0.00111934
-0.00170483
-0.00121583
0.00292066
-0.00111488
-0.000524152
0.00163904
0.000408797
-0.000385186
-2.3611e-05
-0.00142967
0.0010055
0.000424168
0.00139349
-0.000678223
-0.00071527
-0.00146329
-5.99901e-05
0.00152328
-0.000388911
1.227e-05
0.000376641
0.000819176
0.00105958
-0.00187876
-0.000974199
0.000504754
7.3918e-05
-0.000763285
0.000689367
0.00227296
-0.000652161
-0.0016208
0.000303316
-0.000114134
-0.000189183
0.000957163
-0.00240978
0.00145262
0.000214578
0.000235628
-0.000450207
0.00209052
-0.00026603
-0.00182449
0.00078845
-0.000232482
-0.000400035
0.00160549
-0.00120545
0.000352095
0.00012238
-0.000474475
8.64225e-05
-0.000193669
0.00127506
-0.00103162
0.000604941
-5.89034e-05
-0.000546038
0.000287248
0.00204694
-0.00233419
-0.000631109
-0.000344992
0.000976101
0.000452778
0.00036173
-0.000814507
0.000131277
-0.000265383
0.000134105
8.70712e-05
-0.000721344
0.000634273
8.57746e-05
0.000316002
-0.000401777
-0.000409501
0.000502243
-0.000491793
-0.000573685
0.00106548
6.33271e-05
-4.16444e-05
-2.16827e-05
-0.000392061
-0.000144332
0.000536392
-0.00016096
-0.00130293
0.000403313
-0.000274152
0.000194001
-0.000688933
0.000494932
0.00149959
-0.00328267
0.00178309
0.0014369
-0.00113181
-0.000305087
0.000437677
-0.000897032
0.000459355
0.00142625
-0.00146099
3.47364e-05
-0.000634851
0.000443169
0.000191682
0.000157777
-0.000924627
0.00076685
0.00210705
-0.00254225
0.000435197
-0.00088669
0.000726682
0.000160008
0.000901569
-8.95676e-05
-0.000812001
0.000190806
-0.000428767
0.00023796
0.000511285
-0.00126918
-0.000862342
0.00073218
0.000130162
-0.0010935
0.000322194
0.000771303
0.00063761
-0.000634364
-3.24598e-06
-0.00118434
-2.45426e-06
-0.00177433
-0.000979961
-0.00161467
-0.00115475
0.000350973
3.72423e-05
-0.000388216
-8.62623e-05
-0.000139073
0.000225336
-7.15956e-05
-0.000445853
2.95506e-05
0.000511151
0.000258813
-0.00105803
0.000799212
-0.00146213
0.000779485
0.000682649
0.000418624
-0.000133702
-0.000284922
-0.00333772
0.00326761
7.01069e-05
0.000226073
0.0014041
-0.00163018
-0.000570079
0.000374057
0.000196022
-0.00098827
-0.00082013
0.0018084
0.00182476
-0.00274379
0.000919033
-0.000869438
0.000520068
0.00034937
-0.00129829
0.00143758
-0.000139293
-0.000277112
0.00110789
-0.000830778
0.0023608
-0.00555094
0.00319014
-0.00197745
0.0019838
-6.34841e-06
-0.000745208
0.00128151
-0.000685343
0.000124099
0.000561244
-1.87403e-06
-0.000851448
0.000853322
0.000239114
-4.65229e-05
-0.000192591
-0.000166432
-0.0002552
0.000421632
0.00147695
-7.16702e-05
-0.00140528
-0.000713717
0.000138107
0.000520588
0.000292261
-0.000812849
0.00103028
-0.000311649
-0.000718634
0.000630436
-0.00140013
0.000769693
0.000378885
-3.95526e-05
-0.000339332
-0.000998504
0.000918682
7.98214e-05
-0.0018885
0.00338809
0.000707369
-0.000974242
0.00135562
-0.000641205
-0.000714411
0.000372179
0.000272576
-0.000644755
-0.00013344
-0.0018486
0.00198204
0.000568387
-0.000453192
-0.000115195
0.00154869
-0.0011103
-0.000438385
-0.000139923
-0.000230122
0.000370045
1.29538e-05
0.000374205
-0.000387158
0.000396354
-0.000677208
0.000280854
-0.000847668
-2.9741e-05
-0.00138469
0.000390731
-0.000370373
-0.00126171
0.00163209
-0.000196425
0.000648392
-0.000451968
-0.000142969
-5.44975e-05
0.000197466
-0.000173209
-0.00169525
0.000356441
-0.000516458
0.000160017
0.00231834
-0.000295168
0.00290393
-0.000431612
-0.00247232
9.01808e-05
0.000507273
-0.000597453
0.00163562
-0.000773088
-0.000862533
2.18292e-05
-0.000523521
0.00210748
-0.000900025
-0.00120745
3.35872e-05
6.07798e-06
-3.96652e-05
-0.000887188
0.000484559
0.000402629
-0.00137783
0.000943279
0.000434551
-0.000864177
-0.000597957
0.000907809
-0.000489186
0.00045152
-0.000346755
-0.00021438
-0.00148364
-0.000994142
-0.000173854
0.001168
-0.00173994
0.00213303
-0.00039309
0.00133554
0.000857633
-0.00219317
-0.000345958
0.000260222
8.5736e-05
-0.00145134
0.000233598
0.00121774
-7.62294e-05
3.18874e-05
4.4342e-05
0.00104537
-0.000559555
-0.000535919
0.000399479
0.000600816
0.000410357
-0.000375129
6.05755e-05
0.0019993
-0.000481237
-0.000557138
-0.000339488
0.000896626
-0.000642451
0.00142224
-0.000779791
-5.30966e-06
0.000191922
-0.000186612
0.000185359
2.7879e-05
-0.000213238
0.00173702
-0.000936704
-0.000800321
-0.00125845
0.000929047
0.000329401
-0.00103053
0.000996543
3.39886e-05
0.000971876
0.000109965
-0.00108184
0.00136919
-0.000441408
-0.000927784
-0.000381272
0.00136978
-0.000988509
-0.00104155
0.000184354
0.00034459
0.0011911
-0.00153569
0.0010632
-7.42642e-05
-0.00103742
0.00142978
-0.000392355
-0.000817224
-0.000452506
0.00126973
0.000288678
4.31554e-05
-0.000331834
-0.00016467
0.000787765
0.000493614
-0.000178884
-0.00031473
-0.00111046
0.00165094
-0.000540487
-0.000155897
0.000263119
-0.000107222
-0.000319485
-0.000425491
0.000744976
-0.00257173
0.000903373
0.000592898
-0.000505828
-0.000109307
0.000195082
-0.00646402
0.00210544
0.00435858
0.00401296
-0.00401296
0.000111547
-0.000330834
0.000219287
-0.000199729
0.000857464
-0.000657735
-0.00120034
0.000919959
0.000280384
-0.000824893
-0.000880001
0.00170489
0.00119841
-0.00133305
0.000134643
0.0017281
-0.00112727
-0.000600835
0.00221958
-0.0048944
0.00267482
0.00101977
-0.00164877
0.000906519
-0.000157056
7.69756e-05
7.87047e-05
0.00232804
-0.00123048
-0.00109757
0.000728282
-0.000207556
-0.000520726
0.00149055
-0.00149055
0.00151976
-0.00151976
0.00256604
-0.0025001
-6.59335e-05
0.000224148
0.000430477
0.00110862
0.000275715
-0.00138434
-9.5872e-05
-0.00089623
0.000992102
-0.00196699
0.000602334
-0.000371936
0.000212936
0.000159
-0.000371576
-0.000658954
3.22775e-05
-0.00054738
0.000515103
0.000215107
9.48479e-05
-0.000309955
0.000315445
-5.14681e-05
-0.000263976
0.000447309
0.000442839
-0.000890149
-0.000646653
0.000248192
0.000398461
-9.884e-05
-0.000918875
4.64219e-05
-0.000600573
0.000554151
-0.00215475
-0.000787263
0.000310751
0.000756902
-0.00106765
-0.00119058
0.000539979
0.000650605
0.00127666
-0.00115066
-0.000125996
0.00179344
-0.00175586
0.00158717
-0.000524124
-0.00106305
0.000835221
0.000321225
-0.00115645
0.00147307
-0.000353556
0.00138306
-0.00065357
0.000681323
0.000119273
-0.000604022
-0.00039448
0.000183886
-0.000423638
0.000239752
-0.00021151
0.000498853
-0.000287344
0.00092448
-0.00086716
-5.73205e-05
0.000310373
-0.000167961
-0.000142412
-0.00137358
0.0010776
0.000295984
-0.0014616
0.00180718
-0.000345577
-0.00167191
0.00189632
-0.000224407
-0.000717908
0.000398424
-0.000761184
-2.21773e-05
-0.000515087
-0.000487986
0.00100307
0.00103239
0.000719976
-0.00175236
-0.00018097
0.000533068
-0.000370713
-0.00044651
0.000297615
0.000310473
-0.000812862
-0.00208766
-0.000147924
0.000656562
-0.000508638
-3.0705e-05
0.000717917
-0.000687212
-0.000734751
-0.000226453
0.000961204
-7.82924e-05
-0.000142085
0.000366803
0.00111105
-0.000839064
0.00119899
-0.000359922
-3.62958e-06
0.000433148
-0.000429519
0.00145632
-0.0011441
0.00220822
-0.000842232
-0.00136599
0.00119479
0.000149462
-0.00134425
0.000933402
-0.000349808
-0.000583594
-0.00017048
-0.000197072
0.000367552
-0.00108589
-0.00046661
0.0015525
-0.000137178
-0.00054443
0.000175108
0.000213572
-0.00148554
0.000925991
0.000559549
0.000505125
-0.00102021
-5.1837e-06
0.00024079
-0.000277268
0.00141777
0.000910231
-0.00212936
0.00121913
0.00268021
-0.00298659
0.000306374
0.000578027
-7.19464e-05
0.000432377
0.00168167
-0.00211405
0.00064265
0.00249531
-0.00313796
-8.39602e-05
-0.000913398
0.000997358
0.00100432
-0.000523269
-0.00048105
-0.000676398
-0.000405378
0.00108178
0.00100614
-0.000735539
-0.000270604
0.00132757
-0.00100018
-0.000327396
0.000283006
-0.000357954
7.49482e-05
-0.000845521
0.00173435
-0.00088883
-0.000853451
0.000623334
0.000230117
0.00199148
-0.00103432
-0.00113154
-0.000223941
0.00135548
0.000296595
-0.00045946
0.000162865
-0.000753525
0.000666459
8.70655e-05
-0.000489818
-0.000504325
-0.000812317
0.00123413
-0.000421817
0.00150364
-0.000233086
-0.00127056
-0.000432639
0.000405559
2.70795e-05
-0.000954245
0.00163305
-0.000678803
-0.000106074
0.000168116
-6.20418e-05
-0.00124198
0.000412851
0.00293216
-0.00290384
-2.83118e-05
4.42173e-05
-0.000784578
0.00074036
0.000634605
-0.00059981
-3.4795e-05
-3.51714e-05
-0.000889372
0.000924543
-0.000150597
-2.04805e-05
0.000171077
0.00109436
-0.000960158
-0.000134206
-0.00167124
0.000121762
0.00154948
-0.000262854
0.000162668
0.000100185
-0.000151017
-2.79299e-05
0.000178947
2.69028e-05
-0.000452553
0.00042565
2.29242e-05
-0.000207898
0.000184974
0.00125758
-0.00104324
-0.000214339
0.000236811
0.00139142
0.000551371
0.000147954
-0.000699325
-0.000430732
0.00033926
9.14726e-05
-0.000290132
1.72276e-05
0.00244795
-0.00178095
-0.000666996
-0.00120912
-0.000143976
0.00135309
-0.000777589
-0.000171377
0.000948966
-0.00153532
0.000150959
-0.00465131
0.00329381
0.00135751
0.000664826
-0.000425711
0.00105696
-0.0012234
0.00112606
2.82847e-05
0.000287419
0.000263813
-0.000551232
-0.000685395
0.00270909
-0.0020237
0.0022647
-0.0018559
-0.00127185
0.00070892
0.000562934
-0.000701632
0.00143199
-0.000730353
0.00108789
-0.000389446
-0.000698441
3.87577e-05
-0.000257861
0.000219103
-0.000967188
-0.000172829
0.00114002
-0.00112043
0.000703013
0.000417421
0.000556023
-0.00137801
0.000906164
-0.00146042
0.00247822
-0.0026513
0.000173075
0.00117511
-0.000626959
-0.000548155
0.00191091
-0.00153658
-0.000374334
0.00093048
1.5725e-05
-0.000946205
-0.00164223
0.00215177
-0.000509539
0.00238848
-0.00120107
-0.0011874
-0.000481468
-0.00101989
0.00150136
-0.00080558
0.00138829
-0.000582714
-0.000715098
0.000764587
-4.94884e-05
-0.000203491
-0.00177396
0.000592356
-0.000860482
0.000268126
3.9257e-05
0.000306188
0.000568081
-0.000278924
-0.000289157
0.00267584
-0.00509933
0.00242349
-5.1867e-05
-0.000128395
0.000180262
5.74373e-05
0.000580815
-0.000638252
0.000224226
-3.88682e-05
0.00095486
0.000782165
0.000380827
-0.000343893
0.000415276
0.000452204
-0.00086748
0.000444247
0.00133139
-0.00065238
0.00228783
-0.00163545
-0.00108087
0.00333382
-0.00225294
0.000312776
-0.00053711
0.000224334
-0.000287364
-0.000597454
0.000884818
0.000453384
-0.00287461
0.00242122
-0.000502077
0.000569536
-0.000120498
-0.000449039
0.000608831
0.000245454
-0.000854285
-0.000306351
0.00109256
-0.000786207
0.00230349
-0.000918601
-0.00138489
-0.000789694
0.0005182
3.231e-05
0.000776547
-0.000808857
0.000499401
-0.00058227
8.28683e-05
-0.0014654
0.000491288
0.000974107
-0.000757167
-0.00088706
0.00164423
0.00104797
-0.00100666
-4.13109e-05
-0.00177127
-0.000478142
0.00224942
-0.000130203
0.000509087
-0.00175489
0.00522605
-0.00347116
0.000220845
-0.00135239
-0.00337959
0.00241361
0.000965977
-0.000477873
0.000210128
-2.81804e-05
0.000620536
0.00112472
-0.0012952
0.000608356
-0.00180097
0.00119262
1.69771e-05
-0.000125883
0.000108906
-0.00046844
0.000755861
-6.56513e-05
-4.08316e-05
0.000106483
-0.000437871
-0.00102388
0.00146175
-0.000565969
0.00159428
-0.000534719
0.000146687
0.00104781
0.000781833
-0.000293249
-0.000392094
-0.000392505
0.000467572
0.000312355
6.92198e-05
0.00154441
-6.74655e-05
-0.000498505
-0.000285379
-0.00166872
0.000725451
0.000943269
-1.41241e-05
-0.000310459
0.000324583
0.00148625
-0.000802548
-0.000683697
-6.15571e-05
-0.00024584
0.000307397
-0.000618543
0.000475881
0.000142662
0.000650432
0.000216941
-0.00114082
0.00196
0.000276935
2.5405e-05
-0.0015716
-0.000618447
0.00219005
-0.000359986
-0.00126988
2.15751e-05
-0.000150083
-0.000271693
-0.000783608
0.0010553
0.000239182
0.000596039
0.00126017
1.64888e-05
-0.00138058
-0.000104952
-0.00037436
0.000568268
-0.000193909
-0.000629613
0.000337997
0.000291616
-0.000716551
0.000930531
0.00198422
-0.00178701
-0.000197211
0.00133146
-0.00095521
-0.000376251
0.000327326
0.000860027
-0.00118735
0.000626325
0.000104079
-0.000730404
-0.000156592
4.87542e-05
0.000107838
0.000401385
0.000640013
-0.0010414
0.00226071
-0.000137777
-0.00212294
-0.00307273
0.00307157
1.16541e-06
-0.00212017
0.00213045
-1.02837e-05
0.000527888
0.000329476
-0.000857363
0.000450612
-0.00220407
0.00175346
0.00198944
-0.00092986
0.00103839
-0.00142808
0.000389689
0.000843479
-0.00142121
0.000577732
0.000225906
-0.000632534
0.000406627
0.00196967
-0.00265506
0.00218841
1.8762e-05
-0.00220717
0.00317661
7.47786e-05
-0.00325139
-0.000247269
0.000900879
-0.00065361
0.000741265
-0.000859373
0.000118108
0.00032562
-0.000995881
0.000670262
9.36869e-05
0.000630575
-0.000724262
-0.00148981
0.000512553
0.000977255
-0.000527145
0.000892508
-0.000365363
-0.000697091
0.000500052
0.000197039
0.0007955
-0.000374321
-0.000421179
0.000113062
0.000594307
-0.00187295
0.000424142
0.00144881
0.000633994
0.000513138
-0.00114713
0.00292361
0.00148839
-0.004412
-0.000491068
0.000706133
-0.000215065
0.000256789
-0.000165643
-9.11463e-05
-0.00101214
0.00084327
0.000168867
0.000329899
0.000579323
-0.000909223
0.0012109
-0.000653246
-0.000557658
0.00129013
-0.000734435
-0.000555694
0.00116114
-0.000452218
-0.000708918
0.000570409
-0.000724798
0.000154388
-0.00056101
0.000654696
-0.000884622
-0.000605185
0.00207655
-0.00135249
-0.000171372
-0.000659151
0.000745902
0.000794634
-0.00154054
-0.000254997
0.00035958
-0.000104584
0.00100256
0.000762295
-0.00176485
0.00370712
-0.00216949
-0.00153763
-0.000113488
-0.000317322
0.000430811
0.00112594
-0.00090692
-0.00023733
0.00097899
-0.00074166
-0.000398761
-0.0015053
0.00190406
-0.000302684
-0.00141407
0.00171675
-0.00034615
-9.28625e-05
0.000575001
0.000248229
-0.000766285
0.000333643
0.000316981
0.000218198
-0.000535179
0.00205784
-0.000530178
-0.00152766
0.00200468
-0.00041751
0.000279519
0.00103935
-0.00131887
9.77573e-05
0.00024326
-0.000341017
0.00062042
-0.000622148
1.72799e-06
-0.000853825
-0.00051976
0.00077985
-0.00170635
0.000926498
0.000978921
-0.00233262
0.0013537
0.000265769
0.000265882
-0.000531651
-6.40461e-05
-0.000792746
0.000856792
2.96493e-05
-0.000585148
0.000555498
0.00298777
-0.000307557
0.000242234
0.000187675
0.000529338
-0.000998446
0.000469108
0.00125476
-0.00146941
0.000214648
-0.00206566
0.00175952
0.000306136
-0.000379533
-9.08853e-05
0.000470418
-3.50257e-05
-0.000288318
0.000323344
0.00175753
-0.00221828
0.000460754
-0.000391018
0.00059925
-0.000208233
-6.10482e-05
-0.00124357
-5.36768e-05
-6.52786e-05
0.000118955
0.000663764
0.000314738
-0.000978503
-0.000519846
0.000415484
0.000104362
-0.00108958
-0.000168872
-0.000317784
0.000231764
8.60199e-05
0.000616809
-0.000582058
-3.4751e-05
-0.00088149
0.000296068
0.000585421
0.000492436
-0.000418409
-7.40266e-05
0.000207947
-0.000249767
4.18203e-05
-0.00124681
0.000427779
0.000819028
-0.000274915
-0.000111248
0.000386163
-0.000148565
0.00107304
9.3561e-05
0.000216812
-0.000170438
-0.00057989
0.000750328
0.000610893
-0.00155053
0.00093964
0.000964567
-0.000397084
1.49009e-05
0.000381453
0.000516208
-0.000503254
-0.00471815
-0.0019205
0.00663866
0.0006828
0.000550491
-0.00123329
0.00109496
-0.000265924
-0.000829032
-0.000884542
-0.000260997
0.00114554
0.000344664
-0.000311076
-0.00018654
-0.000700647
0.00480535
-0.000344361
-0.00446099
0.000195927
0.00100248
0.00117991
0.000548187
9.87879e-05
-0.000434149
0.000335362
0.00115971
-0.000639123
0.00116525
-0.000134968
0.0019933
-0.000757471
-0.00123583
0.00052503
-0.00179085
0.00126582
0.0002673
0.000213045
-0.000480345
-0.000954274
0.000874892
7.93818e-05
-0.00135962
-0.000834836
0.00219445
-0.0015005
-0.000410724
0.00191123
-0.00125135
0.00170473
0.00093725
-0.000743718
0.000598453
-0.000460822
-0.000137631
-0.00105366
0.000324258
0.000729407
0.001948
0.000324957
0.000363293
0.00119085
0.000647991
0.000870955
-0.00185527
0.00287411
-0.00101883
1.58912e-05
0.000885678
0.000334122
-0.000217726
-0.000116397
0.000136722
-7.66509e-05
-6.00714e-05
-0.000861939
0.00112196
-0.000260024
0.000558945
-0.000287545
-4.82636e-05
0.000270752
-0.000471926
0.00147448
-0.000859361
0.00103516
-0.000175796
0.00108861
-0.000153665
-0.000934944
0.0014248
-0.00102354
-0.000401255
-0.000454579
0.00081102
-6.95822e-05
-2.33881e-05
9.29702e-05
0.00078696
0.000371841
-0.0011588
0.000619642
0.000233877
0.000729433
-0.000992286
0.000361921
-0.00051008
0.000148158
0.0012456
-0.000753167
-8.28157e-05
-7.37774e-05
0.00115331
-0.00075192
0.00230768
-0.00331152
0.00100384
0.000585381
0.000316775
-0.000404715
-0.000367864
0.000772578
0.000254057
-2.97912e-05
-0.000224266
0.000780405
-0.000541758
-0.000238648
0.000872678
4.67919e-06
-0.000877357
0.000401656
0.000715611
-0.00111727
0.000926986
0.00111889
-0.000397726
-0.000220816
-0.000572562
-0.000280888
-0.00311935
0.00283832
0.000281029
-0.00150074
0.000710792
0.000789947
0.000379253
0.00030207
0.000492544
0.000890516
-0.000301872
0.000376502
-7.46293e-05
0.000819202
-0.00112103
0.000301831
-0.00150704
0.000667328
0.000839707
-0.00131756
0.000825764
-0.00035081
0.000414139
-0.000892128
0.000690065
0.000202063
0.000361008
-0.000100927
-0.000260081
-0.000285607
2.75227e-05
0.000258085
0.000287571
-0.000507744
0.000220173
-0.000171394