/*--------------------------------*- C++ -*----------------------------------*\
  =========                 |
  \\      /  F ield         | OpenFOAM: The Open Source CFD Toolbox
   \\    /   O peration     | Website:  https://openfoam.org
    \\  /    A nd           | Version:  7
     \\/     M anipulation  |
\*---------------------------------------------------------------------------*/
FoamFile
{
    version     2.0;
    format      ascii;
    class       volVectorField;
    location    "4";
    object      U;
}
// * * * * * * * * * * * * * * * * * * * * * * * * * * * * * * * * * * * * * //

dimensions      [0 1 -1 0 0 0 0];

internalField   nonuniform List<vector> 
65364
(
(685.209 -1633.93 0)
(-1347.07 1493.11 2.887e-14)
(1718.55 -1571.55 -1.76643e-14)
(-2448.35 -881.268 9.14221e-15)
(-1259.12 -690.341 0)
(506.846 -1401.9 0)
(2636.63 792.229 -7.52272e-14)
(2801.46 -682.208 7.12622e-16)
(2503.92 635.96 0)
(5263.17 29.5663 2.33855e-14)
(1986.99 544.122 4.1582e-15)
(2872.18 -106.58 0)
(309.053 -1811.89 -1.72859e-13)
(1942.96 86.2996 0)
(-964.187 656.17 -1.57687e-18)
(-1396.09 -2379.17 1.28848e-16)
(-1882.34 -248.814 -4.70365e-14)
(653.013 -87.9723 3.24968e-14)
(2291.59 1506.66 1.32396e-14)
(1970.24 1816.86 -3.2465e-14)
(-3161.54 97.0242 -3.74137e-14)
(2244.16 -545.262 -4.70093e-14)
(-993.406 472.941 -3.71653e-14)
(-1320.17 -2066.98 3.5926e-14)
(1619.77 -1529.37 0)
(1642.77 -1872.87 -1.24282e-13)
(876.843 454.38 1.31936e-14)
(3302.91 -1764.8 0)
(-3028.08 -523.145 0)
(355.017 -676.723 0)
(6119.24 57.7938 -3.55963e-15)
(6220.02 -245.09 3.98067e-15)
(-2902.91 1979.18 -2.75647e-14)
(1574.03 -1482.15 2.62302e-14)
(3670.32 -365.34 0)
(3231.84 495.436 -6.8151e-15)
(985.655 1079.74 8.74817e-15)
(4306.63 -2486.14 0)
(-2519.74 -851.075 -3.07171e-14)
(-1879.14 -1031.12 8.24857e-14)
(-281.384 -955.801 -7.14924e-14)
(-1200.03 -986.776 0)
(-2487.67 546.999 0)
(2564.69 -344.531 -7.30489e-15)
(-1497.36 2743.59 3.5844e-14)
(312.877 -2139.19 -2.64869e-14)
(1088.94 -1688.66 2.17781e-14)
(3321.03 -465.269 0)
(-1677.55 1229.2 0)
(3016.32 -1158.94 0)
(350.202 -2374.57 0)
(1825.36 -417.898 1.43232e-13)
(4188.69 456.242 4.7874e-14)
(294.811 -1011.07 -8.85387e-14)
(-539.088 2025.14 8.10292e-16)
(5287.27 -832.718 -1.08399e-14)
(7316.4 1615.79 1.73706e-14)
(-241.215 -2493.81 -8.06725e-14)
(-1879.42 -3124.21 -5.77797e-14)
(-1266.88 -447.386 5.22954e-14)
(-4600.94 -298.137 -6.01914e-14)
(2143.23 -1522.58 1.36592e-13)
(1798.37 -1090.22 1.24233e-13)
(493.105 996.537 -3.00386e-14)
(-2799.16 -613.343 1.88791e-14)
(2972.81 41.5353 3.56347e-14)
(1365.84 -29.0675 -1.19939e-13)
(1289.74 -3212.72 0)
(-757.857 -678.428 -1.14586e-13)
(-658.127 -1597.23 0)
(1065.57 -2535.33 0)
(697.814 623.672 -2.73169e-16)
(3900.34 848.178 1.40816e-14)
(4628.45 955.249 -6.77435e-15)
(4163.97 -788.155 4.20712e-15)
(-1034.07 -921.941 7.52167e-14)
(-2282.53 -534.607 4.61455e-14)
(-849.491 -1232.27 0)
(1408.02 152.238 7.81459e-14)
(3590.3 154.159 0)
(4239.41 -673.34 1.08721e-13)
(213.857 -868.873 1.35655e-14)
(-1140.72 868.008 -1.04613e-14)
(3372.59 -2867.5 6.66063e-14)
(357.448 314.636 -8.21393e-14)
(-1293.2 -2347.24 0)
(-856.327 545.571 0)
(1171.66 -905.453 -4.17149e-16)
(401.096 2440.6 0)
(189.295 -426.038 3.02013e-15)
(-2950.73 -184.93 -4.4852e-15)
(3057.82 756.692 -2.75115e-15)
(213.129 -334.39 3.5558e-15)
(-93.4939 -472.656 0)
(253.454 475.013 1.62383e-13)
(340.11 -388.069 -9.02686e-15)
(2606.5 1640.55 -8.80841e-14)
(4044.25 -838.264 -1.22186e-14)
(1273.2 108.634 1.14933e-12)
(-858.35 -2211.44 -4.78807e-15)
(502.471 112.462 -2.22876e-14)
(3373.15 -1781.59 1.43022e-14)
(1345.29 -1821.81 8.44767e-14)
(-406.753 -350.845 -7.79417e-14)
(724.398 -1214.21 -1.04504e-13)
(370.802 208.302 -5.78884e-15)
(1193.96 -1323.13 7.28463e-14)
(2523.79 -2010.21 6.79117e-14)
(3293.25 1883.3 0)
(-536.775 339.338 3.98341e-12)
(-3709.86 129.585 -3.96896e-14)
(1433.79 -620.893 0)
(185.385 -724.606 3.45364e-14)
(-3273.93 169.159 -5.23357e-14)
(-304.738 452.014 7.02907e-14)
(607.147 -3427.32 1.05857e-13)
(1466.43 -1648.89 0)
(-99.2184 -2020.38 -5.13569e-14)
(2572.13 -2038.9 1.96819e-14)
(1337.42 -1297.84 0)
(-889.988 -287.459 -1.30136e-14)
(-4364.12 -183.645 1.54541e-14)
(847.29 383.927 3.56409e-16)
(1816.07 -49.466 4.27943e-15)
(2920.97 922.319 0)
(-3596.39 157.197 6.50987e-14)
(-940.732 -1967.99 -5.07758e-14)
(2366.64 133.049 -2.83382e-14)
(-1470.02 1438.76 3.40911e-14)
(-215.262 -1412.79 -5.5707e-14)
(1750.4 -700.735 3.77468e-14)
(1466.33 -4097.66 0)
(225.98 -1224.08 0)
(-1055.42 1913.92 0)
(2881.76 -1743.41 0)
(2560.31 -909.472 0)
(2213.73 -1806.4 -6.90407e-14)
(962.303 -1424.64 0)
(-2960.71 1412.97 -8.056e-15)
(2870.78 336.834 0)
(4041.09 -87.2833 2.48175e-14)
(2807.23 -983.194 1.63951e-15)
(-27.1234 1146.33 2.60032e-14)
(60.3831 1851.68 -8.08437e-16)
(2176.69 -962.725 5.07787e-14)
(1100.2 177.882 0)
(-1529.95 -1281.14 0)
(-3133.8 -3559.11 6.08426e-14)
(-3238.53 -2188.92 -3.07186e-14)
(3147.51 -954.2 -3.68281e-15)
(-992.402 -3789.89 -1.53326e-14)
(-2596.92 -2134.94 0)
(675.976 -1881.3 0)
(383.303 -805.35 0)
(-3541.83 -1076.05 0)
(-84.2598 -199.977 0)
(2372.26 1253.56 -1.04596e-15)
(4258.53 -817.795 -6.05436e-14)
(-997.109 125.365 3.21878e-14)
(-2457.9 -1955.14 -1.12096e-13)
(2751.96 288.057 3.97169e-14)
(-32.2211 61.8514 3.92216e-16)
(-3462.65 173.221 -5.9288e-16)
(-397.377 -1962.69 -3.52928e-14)
(-169.625 -1413.61 0)
(4737.56 -877.932 -5.66558e-16)
(5240.95 1236.13 8.95323e-16)
(1458.73 -2029.14 -9.74682e-14)
(-597.779 -2408.83 0)
(403.561 -2255.13 0)
(959.832 967.017 -2.88818e-15)
(3388.05 -565.122 1.83389e-15)
(862.709 -1715 3.60353e-14)
(-3670.99 1198.8 -5.56975e-14)
(842.349 -170.581 0)
(2751.26 218.613 0)
(-1236.06 -1918.13 -1.50838e-13)
(6525.43 -456.324 0)
(588.269 -936.472 -3.81866e-14)
(951.571 -0.0727166 -5.55983e-14)
(-1420.26 -765.582 0)
(-390.724 -337.809 0)
(-2603.56 -2213.71 -4.2994e-14)
(2080.69 1927.26 0)
(-899.481 892.746 -1.3392e-14)
(775.69 -797.133 9.32091e-15)
(2532.71 499.757 0)
(165.892 -929.281 -1.44554e-14)
(-5292.96 960.75 2.1973e-14)
(-2575.06 -2233.72 0)
(-626.581 1508.61 0)
(5186.91 238.316 -1.70995e-14)
(1872.87 -2.51272 -2.75872e-13)
(1071.68 -836.519 1.70055e-14)
(778.662 -1858.7 -7.95304e-14)
(106.206 -213.402 -4.04367e-15)
(-1529.03 25.6486 1.6516e-14)
(1989.48 -75.9868 -5.87634e-15)
(-541.946 -3508.11 0)
(3332.03 -804.337 0)
(-485.236 -2257.3 1.33281e-13)
(1374.8 -836.627 -2.23055e-14)
(1715.08 -1669.13 0)
(1509.31 -720.5 0)
(-611.53 -1389.57 -1.87269e-14)
(3074.03 -320.158 0)
(-1614.5 939.35 4.8292e-14)
(212.081 -716.323 -3.23883e-14)
(995.909 -1550.92 0)
(1059.43 206.423 3.05413e-14)
(2571.67 793.94 -2.32465e-14)
(178.137 -490.621 -7.04202e-15)
(-3943.93 860.769 1.03479e-14)
(555.889 2137.5 3.748e-14)
(457.607 1256.52 -5.78585e-15)
(1223.69 -940.04 4.1355e-15)
(2910.67 -436.707 6.2567e-15)
(2252 1329.35 1.00254e-14)
(2317.52 -0.305433 0)
(5436.71 -251.293 4.85673e-14)
(1190.78 748.12 6.52647e-14)
(5343.51 190.82 -7.21178e-16)
(-205.276 -911.658 -4.18945e-14)
(3540.48 -129.948 -1.93765e-16)
(1576.59 893.792 2.6907e-16)
(2237.64 1356.45 6.64169e-14)
(-1250.67 240.553 -5.93749e-14)
(2047.62 -514.728 1.84303e-14)
(1272.03 -776.487 0)
(2178.43 2818.75 -3.35782e-16)
(3443.15 1307.86 0)
(3777.28 -896.335 -5.43924e-15)
(-812.025 -583.898 -1.72143e-16)
(1103.09 -2084.62 -1.47554e-13)
(-1113.56 -1980.96 2.18256e-14)
(-610.815 690.373 -2.20361e-14)
(-884.83 177.405 0)
(-388.632 -5537.99 0)
(-1477.37 -68.2476 -7.33716e-15)
(-374.982 324.652 0)
(1436.83 1382.47 -7.10821e-15)
(-592.121 651.137 -6.06098e-15)
(1946.39 17.1182 1.12604e-14)
(2769.36 675.802 2.33489e-14)
(1925.48 1827.66 -2.93826e-15)
(1681.58 -3152.09 3.63152e-14)
(1674.18 -1432.16 5.51536e-14)
(1644.19 -525.114 1.80908e-16)
(2413.58 -3542 -1.05025e-13)
(3937.53 1348.78 0)
(1441.58 -1399.96 7.77452e-15)
(-1285.18 -417.752 -1.12105e-14)
(-526.724 -1367.96 4.50491e-14)
(539.89 -623.102 -3.91544e-14)
(379.137 -934.82 1.10931e-14)
(-3055.07 -129.701 -1.64096e-14)
(13.5016 452.876 0)
(-1272.25 -2254.94 -6.3712e-14)
(2305.42 100.082 2.0072e-12)
(-2177.05 3928.73 2.19791e-14)
(-1969.32 -5204.07 0)
(-343.529 1081.76 2.21487e-14)
(1858.94 -646.39 0)
(554.43 -1313.96 -3.29817e-15)
(1685.71 -3176.74 3.64819e-15)
(1283.6 -310.478 9.9014e-14)
(215.785 232.292 -2.71466e-12)
(1169.23 -4517.81 -9.64354e-14)
(-1121.58 245.328 -1.31156e-16)
(2074.71 -1065.46 1.05891e-16)
(-525.946 -2362.85 -7.49645e-14)
(-749.292 -563.603 7.87112e-14)
(2069.42 765.649 0)
(-1019.91 -3118.84 2.87075e-16)
(2400.52 -297.864 -1.83695e-15)
(-3500.22 578.867 0)
(653.673 -1445.91 0)
(1578.88 -1200.83 1.86128e-15)
(-328.309 -1617.05 0)
(159.462 418.139 0)
(223.318 -856.649 0)
(-3487.83 -2799.41 0)
(3200.01 863.333 -1.47826e-14)
(1771.42 -810.778 -5.43964e-15)
(-624.55 -43.2725 7.89975e-15)
(399.859 -751.057 4.97864e-14)
(-594.589 305.276 -6.33669e-14)
(2155.3 -1868.15 -1.71928e-14)
(3929.9 -673.446 1.79912e-14)
(4455.41 -338.416 -6.71678e-14)
(119.434 156.683 0)
(2451.2 -762.643 0)
(921.287 -1435.57 0)
(-362.645 1515.08 0)
(904.6 218.025 0)
(417.874 -1082.54 -4.65993e-14)
(-1535.52 -4258.96 0)
(-588.803 -2646.23 -7.15517e-14)
(-333.74 -1322.44 -5.50584e-15)
(1775.93 -1114.65 -3.28246e-16)
(-767.089 318.778 0)
(-1918.08 -2187.9 -4.0722e-14)
(-2388.92 48.8972 4.0995e-14)
(-1502.14 -864.926 0)
(4327.66 -1114.94 2.77717e-14)
(-199.561 767.969 0)
(-2345.3 2345.09 0)
(2874.77 267.43 0)
(-1515 -1888.93 -7.40345e-14)
(3296.19 -1318.78 6.36227e-14)
(-724.591 342.709 -7.52382e-15)
(2707.02 123.301 4.77029e-15)
(2103.89 -1102.93 7.4434e-14)
(-1111.33 1404.6 0)
(202.349 -1208.2 0)
(-2558.6 -1455.43 0)
(447.085 -2247.54 -7.91186e-14)
(-405.424 683.627 -5.78533e-14)
(-580.214 -1247 4.859e-14)
(2337 -901.347 1.91002e-14)
(3966.02 -1446.53 0)
(-1806.16 -1297.71 -1.90489e-14)
(-3767.65 -1175.01 -9.30515e-15)
(-295.855 -942.496 6.38377e-15)
(4373.37 -953.123 5.66382e-15)
(4100.84 1073.38 9.26091e-15)
(1804.97 285.003 0)
(3307.18 -1643.65 0)
(-56.717 -1028.82 -1.19558e-14)
(1429.12 -491.802 -8.1501e-14)
(1239.79 -634.938 1.18803e-13)
(-2320.37 2069.19 1.12856e-14)
(-45.5473 -1270.34 -7.89188e-15)
(1790.27 -1321.4 8.38467e-15)
(-265.645 1258.87 -3.42972e-17)
(4031.1 -393.539 0)
(2618.87 -138.275 1.19516e-13)
(-1097.28 -924.486 0)
(859.361 1091.57 0)
(1944.58 -1090.89 0)
(-333.294 -985.16 2.50954e-14)
(2636.46 -1411.95 -8.4169e-14)
(4029.06 -554.892 0)
(-1420.32 1718.88 -5.70859e-16)
(-559.326 -886.36 -5.00877e-14)
(3378.2 853.512 -1.13495e-13)
(1624.92 -2009.56 -8.74499e-15)
(85.999 15.0616 4.38674e-13)
(1669.29 1345.11 0)
(3095.8 -1027.63 1.51252e-16)
(49.7759 1289.5 -2.73895e-16)
(5022.6 -875.564 8.38173e-14)
(-2701.51 -290.302 0)
(-3089.52 -2070.2 0)
(2503.94 633.829 -2.26348e-14)
(-762.675 -809.76 2.18559e-13)
(3162.09 1387.17 -3.84914e-15)
(686.524 -1610.51 -9.55945e-15)
(-4567.18 1690.86 1.44327e-14)
(5864.76 2066.38 1.23593e-15)
(5676.3 -1202.05 3.1655e-15)
(3426.49 942.276 -1.17952e-14)
(2562.38 -2189.95 9.43788e-14)
(4685.77 2095.17 2.85857e-16)
(-1649.62 -1586.93 -4.50519e-14)
(4933.58 -1445.5 -9.72332e-15)
(925.441 -2541.4 5.06826e-14)
(2140.63 -1067.75 0)
(-2609.78 1628.93 1.35364e-14)
(59.0131 -802.011 -8.76508e-15)
(4869.39 -1229.81 4.75258e-14)
(1915.76 -541.818 0)
(-1233 -1491.99 -4.65393e-15)
(1996.75 -3033.4 5.34462e-14)
(-725.522 -301.636 4.73762e-15)
(5707.99 -111.698 -5.36737e-15)
(-253.004 -1055.7 2.73672e-14)
(-5010.32 807.418 -4.15586e-14)
(3421.94 -573.153 -6.87301e-15)
(2940.07 -112.84 6.1364e-14)
(771.518 -1510.89 2.67014e-14)
(216.495 -248.358 3.15392e-14)
(-2598.8 242.209 -4.61864e-14)
(-246.32 -1608.19 2.72266e-15)
(-6497.88 2955.08 -3.72947e-15)
(1869.62 1740.73 0)
(2151.61 -513.928 0)
(-199.72 414.82 0)
(-1602.09 -667.802 7.92573e-14)
(1080.49 -100.119 -6.05308e-14)
(-1008.28 -1544.93 2.47354e-14)
(-2516.06 -1389.45 -3.84604e-14)
(-147.66 -179.768 3.29024e-14)
(-240.56 -849.871 0)
(-2880.28 -1028.54 -8.59938e-14)
(-874.418 -676.261 6.8119e-14)
(608.609 743.499 0)
(3167.48 397.062 1.14656e-13)
(-6.72247 -1648.24 2.93812e-13)
(-1087.19 -950.426 -3.82295e-14)
(2455.75 16.4805 8.07511e-15)
(584.554 1174.04 -5.69011e-15)
(812.464 -2761.21 3.38628e-14)
(4295.98 -160.206 0)
(1705.79 1438.3 3.02282e-14)
(2458.44 60.2955 -1.37182e-14)
(-114.515 -1899.98 2.47998e-16)
(679.687 -2702.15 5.33301e-14)
(-1762.71 128.668 -3.7777e-14)
(-1818.95 -1866.55 3.6839e-14)
(487.278 -446.638 0)
(-1214.95 -1137.39 -6.79447e-15)
(5996.14 1915.23 -6.77815e-15)
(5674.87 -1285.04 5.03486e-15)
(-98.6102 1110.07 -1.97726e-14)
(1042.28 -1082.52 1.35058e-14)
(1539.46 -539.082 0)
(-1301.17 -366.317 0)
(-1702.56 -1573.16 0)
(-2375.03 -1563.17 -8.82071e-15)
(595.535 -1332.56 6.99149e-15)
(-2989.43 -2351.49 -3.82471e-16)
(1603.63 -2688.73 -5.47299e-14)
(690.288 571.919 0)
(-3138.47 901.914 -9.87278e-15)
(4089.01 578.294 0)
(334.908 -1528.8 0)
(850.361 -1839.17 -4.01596e-16)
(2578 -521.743 4.35057e-14)
(-3695.08 -3157.02 3.42139e-13)
(1995.77 -2580.98 -1.63379e-14)
(2223.84 846.087 1.29653e-14)
(-1014.9 -2232.22 -2.51999e-15)
(1888.76 -299.133 -1.87207e-14)
(-138.383 -446.017 4.60162e-14)
(-2023.29 -200.009 -6.40041e-14)
(3927.54 -1734.84 3.92354e-15)
(-450.581 2195.62 0)
(-2445.13 -1954.72 1.72987e-14)
(-2752.52 548.952 -1.90971e-14)
(1640.85 -879.138 1.41189e-13)
(889.837 52.7673 0)
(486.386 -1369.38 -1.59084e-14)
(3064.6 351.765 1.03082e-13)
(2517.84 -272.563 0)
(2302.32 1861.59 0)
(39.191 -1660.84 5.39047e-14)
(-3990.22 -276.952 7.54641e-15)
(43.0616 -793.329 -5.32114e-15)
(2660.77 -621.099 4.78201e-14)
(563.477 -142.861 -3.48056e-14)
(-1520.51 -444.559 0)
(1006.37 -1093.42 0)
(2518.38 1951.93 -5.37728e-16)
(4279.98 -1226.49 3.57536e-16)
(3112.95 -1402.41 0)
(-2109.08 -173.947 -1.77038e-15)
(135.863 238.099 1.148e-15)
(6577.86 -1215.94 2.22395e-14)
(525.994 1184.29 3.23808e-15)
(4626.35 -718.346 6.09795e-14)
(-1182.9 -4121.61 -5.56466e-14)
(-248.072 -750.015 0)
(1015.19 -1949.69 -1.24627e-13)
(-264.497 -329.086 -4.71574e-14)
(-3108.09 -829.684 2.45164e-14)
(-12.5912 110.184 -2.45163e-14)
(-1937.49 79.7519 3.49596e-14)
(-3151.63 -2403.87 2.81838e-14)
(-1738.75 -1184.58 7.08609e-14)
(978.654 -1313.81 -5.7722e-14)
(-358.553 -238.028 0)
(-4001.05 -525.516 0)
(-1491.71 -197.475 -3.18748e-15)
(2978.44 -2267.41 -3.22604e-14)
(-4124.02 112.587 3.04311e-14)
(74.1946 -1377.32 -2.04504e-14)
(-2356.28 -1890.55 -2.94529e-14)
(-212.711 128.28 2.34004e-14)
(-2059.73 739.042 1.53881e-14)
(1582.72 -1074.97 9.27402e-15)
(2220.78 -1101.29 -9.51232e-15)
(-779.67 164.444 1.34645e-14)
(173.131 643.798 -2.66999e-12)
(1656.49 1030.46 2.45189e-14)
(-2792.19 -1691.89 -3.8551e-14)
(-608.95 167.105 0)
(-560.102 -554.142 -2.92253e-14)
(-3199.68 -1106.54 3.81171e-14)
(-3985.13 -15.7791 0)
(-2037.06 318.344 3.68951e-14)
(1714.69 897.205 2.84996e-16)
(2756.8 -842.319 -1.72876e-16)
(2634.83 -242.552 2.7783e-14)
(-2325.27 -176.28 -3.89258e-14)
(-1298.87 -3082.07 0)
(1399.04 -548.333 -1.79144e-16)
(66.7511 170.718 -2.23267e-12)
(3378.44 1181.49 4.39688e-15)
(-740.795 -586.064 2.25455e-15)
(2217.23 -710.206 -3.66108e-14)
(2124.37 706.446 0)
(3404.21 -1807.78 6.55052e-14)
(576.835 252.109 -7.74115e-14)
(-259.047 -1264.6 0)
(-3014.39 -2623.5 0)
(-1764.95 -551.933 -4.10501e-14)
(938.749 -441.646 3.20917e-14)
(-3430.4 2165.45 2.53854e-13)
(-3382.27 -829.259 0)
(-628.892 -814.661 -4.81157e-14)
(1022.85 -1756.65 4.7295e-14)
(3237.04 284.318 -1.54389e-15)
(539.843 -1171.26 -1.78875e-14)
(-2182.89 -1746.13 0)
(-2973.31 -241.536 0)
(-2271.33 -1459.23 1.5293e-13)
(-4174.17 1332.39 1.88207e-14)
(243.045 -1601.07 -1.2592e-14)
(1318.29 302.155 1.86882e-14)
(1482.3 -2551.44 -6.21575e-14)
(1454.03 286.692 5.7724e-15)
(4050.6 -831.126 -9.46076e-15)
(4139.35 816.008 1.50049e-14)
(2658.3 580.44 1.41212e-13)
(-124.944 -1000.73 0)
(818.067 -2044.28 1.18102e-15)
(33.3019 -842.046 -9.21693e-14)
(-1863.34 -2705.02 0)
(1204.27 -86.4789 0)
(-1946.03 -197.225 -4.34109e-14)
(1529.44 520.881 3.96203e-14)
(-1378.44 531.518 -5.02909e-15)
(-1170.27 -799.274 3.62413e-15)
(1471.48 -1186.38 -3.15669e-14)
(-1406.85 1084.72 5.19926e-14)
(2867.98 638.722 0)
(-838.901 -676.175 -4.25546e-14)
(2767.8 172.881 8.76872e-14)
(1300.35 1121.23 0)
(562.796 3180.42 9.83852e-15)
(2002.28 1923.28 1.52393e-14)
(4359.48 1387.16 3.16011e-15)
(3289.82 -3051.75 0)
(-1620 1976.54 4.66513e-15)
(2501.8 -2588.6 5.32337e-14)
(-1761.15 99.4195 0)
(214.278 -437.007 0)
(821.696 -1702.74 1.01624e-15)
(2380.83 -438.611 -6.12641e-15)
(1660.05 -610.72 1.04373e-13)
(-2144.77 -1883.97 0)
(-845.865 266.468 0)
(2461.26 1280.74 -6.57703e-14)
(4375.97 331.139 2.91811e-15)
(5194.69 448.366 -4.57174e-15)
(-359.301 -1423.69 4.03172e-14)
(1369 -566.799 0)
(1989.94 570.617 0)
(-2387.99 2256.46 0)
(-1636.11 169.964 0)
(1574.27 -135.469 0)
(1311.62 635.223 -1.17836e-13)
(755.435 -347.733 0)
(1161.78 -858.555 0)
(1438.17 -1029.33 0)
(1584.83 -2182.57 -4.90559e-14)
(904.599 -815.133 4.22329e-14)
(-2446.88 -622.199 -6.25248e-14)
(-878.626 -2196.09 -4.01313e-14)
(-441.671 664.206 3.89965e-14)
(-998.75 -163.474 -1.2683e-14)
(3650 -2098.02 -3.09211e-14)
(-1383.77 -2949.92 0)
(-1544.34 424.668 0)
(2409.59 -2245.49 9.55901e-14)
(1598.92 -1176.16 3.24355e-13)
(-689.634 -1265.95 0)
(574.284 -854.443 0)
(3264.25 -402.888 3.33564e-14)
(3932.13 359.062 0)
(745.938 135.175 4.14916e-14)
(3550.71 -1705.98 0)
(1577.7 -2915.57 0)
(5619.45 181.497 -6.358e-14)
(-1379.6 1442.17 0)
(5338.32 -636.621 1.06716e-15)
(7433.17 1231.92 -1.32929e-15)
(-1369.94 125.22 1.81241e-15)
(0.916371 359.808 3.92944e-16)
(1550.11 -2031.13 7.23762e-14)
(424.963 -1130.41 0)
(2637.56 700.807 9.59428e-15)
(420.622 696.28 -7.84648e-16)
(-4563.95 -795.453 1.19756e-15)
(-1661.87 -2229.12 -1.43571e-14)
(5201 211.838 -6.98531e-15)
(-228.043 -25.6963 -2.24808e-12)
(-1092.17 -348.699 -1.26067e-13)
(2107.52 -1297.95 9.51086e-14)
(-1990.81 -661.678 4.98908e-15)
(2432.65 2531.7 0)
(-1402.86 -3121.46 9.42118e-15)
(1316.42 -784.596 2.1272e-14)
(-4041.56 467.135 1.07765e-14)
(-592.999 -145.326 -7.33466e-15)
(3401.75 -373.044 9.07096e-14)
(-5395.42 4211.02 -4.53225e-14)
(476.207 -3068.95 5.11082e-14)
(1304.01 -319.033 2.501e-14)
(-2690.38 -1140.4 0)
(-149.885 -484.994 0)
(1577.29 -791.856 6.56019e-14)
(1274.67 -2104.4 1.29497e-13)
(-110.6 -607.942 0)
(-793.025 159.289 0)
(1674.07 -800.008 0)
(-592.446 -520.322 0)
(-2284.13 -1720.15 0)
(745.124 -4460.43 -1.37035e-13)
(-3537.62 2827.21 1.90941e-15)
(-7.44845 -2057.74 -1.8009e-15)
(2175.67 -2004.15 2.03402e-14)
(216.608 -5263.11 0)
(3278.14 -681.596 -1.67578e-14)
(2253.11 868.145 2.75862e-14)
(3401.33 311.874 7.56797e-15)
(2694.12 -96.8066 -4.05079e-13)
(-1709.02 -138.02 2.32393e-14)
(-3364.98 -437.824 -3.03441e-14)
(178.095 -1943.13 0)
(2526.44 878.06 -1.1095e-14)
(2533.44 -5629.02 6.0727e-14)
(4912.87 -2054.24 0)
(-1539.91 -2093.36 4.01886e-14)
(-2519.69 -446.31 -4.22024e-14)
(1912.86 952.09 4.69003e-15)
(362.436 -820.604 2.57492e-15)
(-2696.11 1645.01 -3.85707e-15)
(2203.18 406.925 -1.5155e-14)
(-1584.99 -2254.85 4.97391e-14)
(-1963.44 1773.6 -6.47655e-14)
(-470.529 -4054.15 -6.8157e-14)
(766.921 -1538.95 -3.18432e-14)
(-2476.83 1712.86 6.66779e-15)
(754.228 -1967.83 -4.42099e-15)
(-3953.48 -885.23 -1.12288e-14)
(3274.83 -1388.86 -1.90296e-14)
(2085.12 -1434.57 -2.71688e-14)
(-2168.62 -1677.24 9.06993e-15)
(-1246.14 -259.038 -8.75425e-15)
(940.676 -3052.41 0)
(3524.54 -589.797 -8.5603e-15)
(1222.81 162.15 -2.34077e-15)
(1389.37 497.514 9.08655e-15)
(-2894.63 -5767.55 0)
(610.679 -325.885 -4.26094e-14)
(-1533.77 -1333.26 2.37631e-14)
(-77.9138 -617.179 0)
(-3223.65 -1016.24 0)
(492.425 2388.91 -2.49479e-15)
(-403.958 -1683.43 3.69415e-15)
(2902.66 -289.261 -7.66624e-14)
(5501.67 242.319 -1.64813e-15)
(7854.81 108.962 2.17794e-15)
(103.805 1837.53 -3.31666e-16)
(2016.22 -1432.44 2.67695e-16)
(4461.47 -973.578 -1.02747e-13)
(646.432 -881.713 0)
(197.89 -1263.05 -6.55077e-14)
(-1115.34 680.56 8.71815e-14)
(1432.17 569.831 -7.33022e-14)
(-2947.45 3273.74 -1.03407e-14)
(-1493.56 1577.39 -2.62162e-15)
(1016.57 1627.5 -3.41254e-15)
(-564.919 -1015.79 0)
(2003.07 -872.359 4.33855e-14)
(-1889.9 -4038.15 -2.38311e-13)
(2833.51 198.153 -1.16784e-14)
(158.059 290.121 3.33603e-12)
(363.433 -444.342 0)
(3620.57 406.58 7.92843e-13)
(-193.813 -216.926 8.50951e-16)
(508.848 -4063.5 -1.22596e-13)
(449.154 -913.355 2.84065e-14)
(2594.89 -19.4714 -2.07431e-15)
(3957.71 -416.738 0)
(3163.32 -2110.4 6.97214e-14)
(267.039 201.188 -8.75061e-14)
(1422.68 974.554 -1.52327e-15)
(553.656 348.822 8.91339e-15)
(4150.95 -1072.3 7.41882e-16)
(-3008.9 342.254 0)
(287.945 -1429.02 1.94331e-14)
(4127.51 -2082.68 1.20305e-14)
(-2388.41 517.222 0)
(814.593 -210.142 -3.2362e-14)
(-906.166 190.105 4.52194e-14)
(3454.46 -1682.73 -2.57383e-15)
(1326.31 -832.194 -1.28648e-14)
(-2815.04 1356.53 1.61451e-14)
(461.655 -1140.55 -1.13008e-14)
(3040.4 -1377.12 3.20288e-15)
(-191.368 88.7745 -9.25939e-15)
(365.946 -657.583 1.24022e-14)
(-1329.82 -683.166 -6.44231e-14)
(3336.95 -682.077 6.03852e-15)
(2885.56 -930.311 0)
(-1569.42 -3879.91 6.8601e-17)
(2945.91 -2890.16 -3.19977e-14)
(135.32 550.65 4.01189e-14)
(2869.04 177.527 6.38459e-15)
(954.083 3427.39 3.10732e-15)
(4235.12 -153.009 0)
(3033.05 -525.105 -1.59365e-14)
(888.86 857.672 0)
(-321.391 -937.712 3.6873e-14)
(2690.39 823.803 0)
(-5502.39 1402.52 -3.95891e-14)
(-3161 -1445.76 3.11815e-14)
(-3671.45 167.647 0)
(-2339.85 -1462.6 0)
(253.199 -281.792 0)
(-3018.34 -544.022 0)
(2918.61 643.616 0)
(8070.37 376.173 -7.56327e-16)
(5495.91 -223.53 5.04186e-16)
(2194.99 102.229 0)
(4291.63 1916.53 1.6633e-14)
(3993.37 -351.112 -6.2477e-14)
(4380.93 -1697.91 -9.62405e-15)
(4506.9 2756.89 1.54341e-14)
(56.7259 124.568 -7.62566e-15)
(1364.42 -4041.46 -1.19622e-13)
(5603.49 -914.252 0)
(7762.1 1634.68 0)
(3214.23 860.681 -4.68888e-15)
(297.782 -1857.05 -3.63429e-14)
(-1564.57 1683.89 2.31673e-14)
(2556.69 -1999.32 -6.7557e-15)
(-735.607 3236.85 1.07117e-14)
(2516.54 -1222.25 4.54087e-16)
(602.431 1688.95 -7.5808e-16)
(175.529 -1921.37 0)
(1074.87 -311.405 0)
(-480.974 -2218.91 0)
(3911.48 1243.3 8.73543e-15)
(2985.42 -166.954 0)
(2729.66 2031.07 -3.2605e-14)
(-296.091 -230.106 4.11026e-14)
(2493.93 -1356.36 -3.0946e-14)
(2796.54 -1972.36 0)
(1219.61 -378.76 6.213e-15)
(3603.93 -1075.64 0)
(3262.41 1497.26 0)
(2635.49 1954.04 0)
(1892.57 -1922.51 3.35512e-15)
(-2087.54 2497.99 -5.18578e-15)
(4737.21 -965.838 -2.51696e-14)
(999.043 -1102.15 1.10083e-13)
(-2346.18 1988.05 -3.11177e-14)
(696.258 -1246.44 7.00542e-15)
(2184.08 -1747.74 -3.23344e-14)
(2236.06 291.632 0)
(-615.931 273.78 -1.06291e-13)
(4614.87 -309.118 -2.85964e-14)
(2772.48 742.641 0)
(4934.2 1847.17 0)
(4278.19 -1378.7 1.79114e-15)
(1022.14 -1021.79 6.01234e-14)
(-1444.61 -595.516 0)
(822.181 -550.188 0)
(1716.41 611.295 0)
(3495.4 -206.076 -5.21935e-14)
(1995.47 -3383.85 -5.7161e-16)
(4297.38 -321.539 -3.73927e-15)
(1871.73 1410.97 5.18801e-15)
(281.253 -294.548 -8.79631e-14)
(2124.44 1414.83 -2.94265e-14)
(-2072.52 -1831.46 -3.20081e-14)
(-3412.46 2228.7 4.03815e-14)
(-916.44 -239.084 -4.14542e-14)
(1794.23 -794.061 2.76919e-14)
(-3075.77 203.806 -4.34353e-16)
(4697.96 -775.374 5.70131e-14)
(106.505 -246.629 4.84628e-14)
(2332.36 941.694 -9.72375e-15)
(3524.92 -759.345 6.00076e-15)
(2606.24 -1071.91 -6.56018e-14)
(-846.036 427.519 6.81998e-14)
(-138.923 -304.925 -4.78887e-14)
(3475.27 1259.4 -1.87464e-13)
(-573.492 1234.42 -1.61984e-14)
(1609.18 -1429.77 1.94599e-14)
(1449.83 -858.241 8.42084e-15)
(1570.12 527.691 -5.33401e-14)
(866.488 -765.831 2.24429e-14)
(-2854.86 -861.322 5.75833e-15)
(981.965 -2376.67 0)
(749.953 -1500.06 0)
(-1613.21 484.275 0)
(1278.71 -1963.92 -1.33085e-14)
(1005.67 -1347.3 -2.4032e-14)
(-72.0288 -1886.15 -7.52162e-14)
(265.15 -84.3313 7.55492e-14)
(-1902.3 -1583.5 0)
(-253.813 -61.3099 0)
(-2058.21 270.185 2.26217e-15)
(1833.62 624.359 3.56688e-15)
(1750.56 -2266.72 -1.08049e-13)
(488.941 -1145.4 -5.15197e-14)
(-1853.38 -317.847 6.56295e-14)
(-1607.07 2047.61 6.54761e-13)
(-2353.4 -2255.33 -4.09546e-14)
(-3354.09 524.674 3.88482e-14)
(3980.54 279.134 0)
(450.331 -1243.83 1.29264e-14)
(-1265.64 2146.59 -1.81589e-14)
(-1858.45 1779.87 0)
(-1964.61 -2235.06 -3.61555e-14)
(-3233.07 488.703 3.59918e-14)
(1507.29 2056.63 -6.21591e-15)
(-2327.72 -1710.84 0)
(-2548.2 356.741 0)
(-2282.9 -4028.5 -7.8883e-14)
(2076.36 -527.379 3.14982e-13)
(970.234 -1470.28 7.05991e-14)
(2386.45 790.402 4.97038e-15)
(6725.93 1919.57 1.63467e-14)
(5947.57 -807.211 -9.5908e-15)
(4482.66 -1363.93 1.69085e-13)
(1247.66 2497.06 0)
(3202.72 1524.14 1.57279e-14)
(1837.72 418.815 0)
(879.459 -2575.68 -3.60125e-16)
(-336.526 -2741.76 9.74801e-14)
(4504.72 -2439.03 0)
(1196.12 -3988.16 5.89818e-14)
(1896.13 -288.272 4.43474e-15)
(-1454.86 -336.159 0)
(523.966 -471.994 -6.88711e-14)
(-2006.17 -1660.17 8.0623e-14)
(-1351.32 -604.796 0)
(34.8769 -1328.55 0)
(3040.73 -1603.26 3.4157e-14)
(1283.26 -1405.85 0)
(-1715.7 -2086.76 -6.79874e-17)
(-3068.31 688.454 1.02301e-16)
(1996.12 637.924 0)
(448.612 -529.715 1.49841e-14)
(-2521.72 -1664.41 -1.98407e-14)
(2186.38 416.121 3.52167e-15)
(1857.93 -1465.11 0)
(1044.15 510.527 5.81851e-14)
(3330.32 709.105 0)
(131.063 -197.049 0)
(-3335.25 -674.826 0)
(-2647.18 -5269.08 -2.43393e-16)
(459.979 57.5639 7.89291e-15)
(3465.58 -1176.7 0)
(-1245.1 -684.099 4.6394e-15)
(840.351 -2159.27 0)
(-732.963 1596.5 0)
(2514.08 -229.532 -6.69506e-14)
(2734.89 -14.8794 2.47662e-16)
(824.119 -591.303 0)
(236.842 -1105.47 -3.46863e-14)
(-3231 -2455.56 0)
(-3529.64 -1385.03 -5.244e-14)
(97.7828 -3118.6 -2.04974e-16)
(-1788.89 4367.72 2.80913e-16)
(1502.74 -166.595 2.20564e-15)
(2420.87 -745.923 0)
(3428 -1168.48 0)
(-3293.52 -1832.63 0)
(-1294.11 -26.4548 0)
(850.242 -1316.08 -3.80457e-14)
(899.059 -1099.21 -3.41826e-14)
(439.931 25.2914 0)
(1806.98 -333.098 0)
(1567.57 143.478 7.21293e-16)
(-2114.01 -2326.2 0)
(-3537.45 804.63 0)
(3786.94 -330.558 -7.31335e-14)
(-1200.7 -1440.5 0)
(639.146 -453.35 0)
(-1419.45 9.33549 1.33733e-14)
(227.922 260.477 -8.86599e-15)
(-4609.46 1594.9 0)
(-3051.34 1090.99 -1.77281e-14)
(1123.13 -651.521 0)
(1531.66 -2237.7 7.65405e-15)
(-251.395 -3321.53 -5.26414e-14)
(3034.01 -2470.45 3.39833e-14)
(-148.284 77.6663 -4.17426e-14)
(4188.63 187.046 -5.83559e-14)
(-194.49 -781.751 0)
(-2298.68 -1289.52 0)
(5446.43 1257.53 -9.2427e-15)
(5219.22 -639.348 6.40091e-15)
(644.891 -1403.94 0)
(819.385 -217.408 -2.7568e-14)
(-4104.4 -378.006 0)
(3903.46 164.192 0)
(-632.198 -3229.73 -6.58438e-14)
(2448.52 -1756.81 -8.7661e-14)
(-1803.95 -2071.99 0)
(-2774.75 922.921 0)
(-53.7084 -853.682 -3.20469e-14)
(-2440.54 -1863.03 7.82671e-14)
(2801.37 -6.72752 -5.27237e-16)
(2646.38 -2355.98 -4.84971e-14)
(-2589.78 -1817.68 0)
(55.1863 -499.787 0)
(1776.42 -859.412 -2.90002e-14)
(2634.54 771.03 0)
(-773.816 -2225.11 -2.89158e-13)
(-669.449 -2717.73 7.34159e-14)
(-590.537 142.092 -1.50954e-14)
(3439.7 -651.378 1.05872e-14)
(3051.63 849.71 -1.79596e-14)
(1385.9 -579.426 6.70256e-14)
(1989.12 -483.616 -5.47519e-13)
(-4049.08 540.369 -1.27401e-12)
(-4474.31 1522.82 -2.47203e-14)
(-736.084 -1159.81 1.68312e-14)
(-368.9 -400.121 1.621e-14)
(-1380.91 -2053.31 -1.90911e-14)
(-2437.68 -920.036 -1.06542e-13)
(-314.329 -242.625 -1.74679e-14)
(-4185.83 62.9464 2.52153e-14)
(-1738.31 -2396.42 1.89839e-16)
(-2136.75 611.548 -3.60167e-16)
(2559.99 4.07029 5.34594e-15)
(-999.909 -2186.9 3.72126e-14)
(-989.403 -309.268 -3.21462e-14)
(2024.25 1771.84 1.1665e-14)
(-1222.84 -1116.26 0)
(-1416.42 -1789.32 0)
(1164.8 156.591 0)
(-683.408 1018.94 -8.6315e-14)
(2.56942 -3121.47 7.12506e-14)
(-308.866 -1009.85 -6.47285e-14)
(-814.459 2563.98 -9.36343e-14)
(1164.65 1112.34 1.20935e-14)
(1412.63 -3359.64 0)
(-325.968 -2371.75 1.20773e-13)
(33.3149 -463.972 -1.11378e-13)
(2731.05 187.256 -3.69887e-16)
(3479.97 272.291 0)
(2258.64 484.288 0)
(-1683.38 2919.46 1.5873e-14)
(2847.81 -2380 0)
(-493.606 -392.914 7.35166e-14)
(-2257.38 -1962.38 -8.47426e-14)
(2440.15 -2760.36 0)
(-6084.79 -999.566 -7.49231e-15)
(-1599.47 749.757 5.22278e-15)
(-243.152 -1447.62 0)
(1580.67 -45.2667 0)
(4689.89 2061.7 1.10697e-14)
(4806.24 -1248.98 -7.38997e-15)
(989.405 -619.587 0)
(2793.93 824.419 0)
(510.329 173.821 0)
(959.885 -115.312 -3.30444e-14)
(-3120.4 3281.65 -2.45192e-14)
(157.865 -2454.13 1.68998e-14)
(4229.14 -1292.11 -2.7502e-14)
(-6021.9 2364.14 5.232e-13)
(549.118 -1490.76 -2.41767e-14)
(3900.77 1337.37 0)
(2260.83 -1791.46 -7.28273e-14)
(-3170.47 -1176.84 -1.95142e-14)
(-639.946 -354.982 1.6727e-14)
(2494 738.917 0)
(-3173.34 816.33 -4.11816e-15)
(517.281 1747.12 3.35269e-15)
(2313.06 344.835 -6.59691e-14)
(-367.131 -831.887 3.82963e-14)
(8617.43 414.474 2.37887e-15)
(5702.96 -64.8186 -1.50322e-15)
(-630.799 391.089 0)
(-2964.49 -1694.82 0)
(-875.46 -1380.75 4.67813e-14)
(7536.5 55.8813 5.45141e-16)
(5595.7 203.212 -3.63203e-16)
(2951.3 -902.954 -2.03601e-14)
(1025.07 600.793 3.02937e-14)
(3782.51 499.01 0)
(3406.56 -900.101 -1.29699e-14)
(2682.34 -518.122 2.47922e-14)
(741.057 173.019 0)
(1336.51 1437.73 -3.82606e-14)
(-1598.62 -6062.63 7.08085e-14)
(-2447.79 -2338.31 0)
(-702.377 435.374 0)
(3219.28 206.926 7.80243e-14)
(5975.31 641.97 5.30565e-15)
(2282.24 1103.13 -1.88468e-12)
(2273.46 -1530.41 0)
(-1687.44 491.069 -1.57146e-14)
(1295.98 -411.105 9.509e-15)
(1644.45 -815.83 0)
(-1450.36 -364.951 4.41797e-15)
(167.848 189.208 -1.20539e-12)
(-1991.7 1749.21 6.49444e-16)
(-2550.29 -1020.75 0)
(-2023.66 -3873.92 6.18064e-14)
(1827.71 -311.657 1.22541e-13)
(3022.58 1932.83 0)
(568.648 -1729.53 0)
(3149.32 769.18 -9.0661e-15)
(-467.668 -454.601 -9.16416e-14)
(887.036 205.039 0)
(952.9 432.173 0)
(-1308.1 -3021.5 -1.06279e-13)
(440.219 910.646 -5.53911e-17)
(3232.05 398.716 0)
(1929.54 -815.884 1.30398e-14)
(1815.76 -218.868 1.41947e-16)
(237.223 679.709 2.96938e-14)
(367.225 -15.1215 3.18981e-14)
(-2627.83 -1472.82 -3.88693e-14)
(320.124 -2419.01 -1.33014e-13)
(137.288 -193.473 1.24128e-13)
(1391.31 -1293.39 0)
(-1960.58 1664.84 -2.81518e-14)
(-2493.81 -3544.2 -9.7981e-16)
(-4091.78 1083.57 0)
(300.768 -1286.9 0)
(445.328 118.668 -6.64871e-14)
(-1439.35 -1730.98 7.52025e-14)
(1096.62 -1742.87 -2.79672e-15)
(-599.702 -970.352 2.81867e-15)
(4757.02 1387.32 4.91748e-14)
(4185.15 -1214.32 -3.08099e-14)
(-2966.42 -1607.64 -4.41578e-14)
(3019.48 1513.13 0)