/*--------------------------------*- C++ -*----------------------------------*\
  =========                 |
  \\      /  F ield         | OpenFOAM: The Open Source CFD Toolbox
   \\    /   O peration     | Website:  https://openfoam.org
    \\  /    A nd           | Version:  7
     \\/     M anipulation  |
\*---------------------------------------------------------------------------*/
FoamFile
{
    version     2.0;
    format      ascii;
    class       volScalarField;
    location    "12";
    object      p;
}
// * * * * * * * * * * * * * * * * * * * * * * * * * * * * * * * * * * * * * //

dimensions      [0 2 -2 0 0 0 0];

internalField   nonuniform List<scalar> 
13182
(
574783
112858
423010
602901
224742
547699
550722
592245
609201
296941
286660
334792
554067
548087
540854
563999
608337
618010
534758
539298
537532
583785
560853
488734
490153
494272
588532
484947
341970
618926
618826
606152
563461
277987
256723
539476
610950
369746
397186
588997
115954
128496
429919
58770.7
476435
205971
603270
397621
380262
599721
462864
467142
269760
592182
551290
496438
349686
596579
552315
614682
610933
604744
589662
507906
458197
455603
557345
481410
235773
514166
62711.6
583944
589782
483957
102085
610893
606507
599877
575436
574295
617498
267398
533932
537901
97872.8
101132
119047
293942
493989
503325
324638
611110
291684
293640
577681
597334
325710
568921
595537
538064
531197
359935
445750
549032
579087
465221
124275
122999
610548
390643
595636
171544
158278
550592
449335
288848
595070
94763.2
511750
504834
499741
244109
608310
540558
416120
403195
540845
612659
543695
359660
40052.2
35200.7
594052
218925
550968
608555
604589
510352
543792
575143
308288
103234
118379
450442
445724
593261
571151
207102
615565
369859
51126.9
459421
460963
363931
488268
486153
82620.6
186925
140136
481089
486796
361766
331829
589845
579625
434369
612257
513329
436193
202870
255087
557552
556636
39093.7
381930
583792
168793
321741
589045
541835
486336
371890
612154
518881
251488
378522
394223
581533
475777
463225
336708
611479
387614
92166
610436
423401
361171
531184
486750
499124
577769
578164
67671.2
599437
293482
80843.1
249487
33030.8
613519
279492
429143
30990.7
592126
552074
332058
518698
464737
613170
425781
59459.2
472515
485175
50455.4
545810
237503
611050
600404
618151
618331
583003
599169
573919
571888
550351
585406
589987
427030
588905
588540
568556
71532.9
74869.3
593216
560753
563400
544751
511799
509993
605006
507081
560813
296503
418838
425015
93946
610686
318785
61320.9
55894.4
174436
412049
609994
609205
621711
506528
437985
305253
592830
503903
600715
597545
596767
593151
357310
610694
357468
591669
589034
517071
82083.4
617555
389839
386039
548720
567072
372095
378492
617536
241968
598879
599238
303049
201030
475546
603086
605285
610522
610634
613649
612883
432551
502046
576548
575138
257262
191162
514885
526160
603399
431627
565513
614524
392379
590715
612092
609401
610005
553843
618914
324211
302208
212984
589579
590943
551254
606754
459370
534520
456663
377681
534465
536341
326104
328694
335018
501211
506303
531605
613924
274597
70167.4
588924
619342
237773
244706
598677
501571
507346
550149
482776
489422
610734
197085
585518
584857
601195
571487
573394
609444
574466
301456
612413
167770
584033
180322
213004
608955
577523
579443
409964
611333
580000
313802
406026
565816
607289
389589
263294
70029.3
538411
507335
318255
611331
550171
457875
463342
426515
587208
226683
537333
485785
615222
615519
534703
532010
595634
610805
290389
416022
590168
312296
293591
518015
612015
592609
352901
489455
610152
607218
447291
537197
539217
311641
451225
619940
206108
602559
275352
416030
563160
434024
578125
611298
611767
618989
267268
592892
464433
571281
575904
70739.9
489170
511865
600197
577612
239273
560081
396354
272378
556535
135032
415734
420321
525404
459594
605008
159466
608181
303398
616762
596045
353371
348263
602148
172441
502387
621430
611435
609868
594538
609501
576029
189279
589821
597460
617234
410690
405553
607323
575751
575857
204295
614377
482217
196563
407977
615925
322388
615959
604400
602943
608442
438966
594499
93061.8
317706
528107
334817
224694
123575
600086
454858
606095
171703
621817
381333
489200
103495
560351
275536
604372
590078
607515
208174
316694
546616
596938
596437
413533
365787
375104
383779
561683
503991
475191
562368
397612
599675
540582
163934
547204
581917
583081
379524
433342
441723
597812
485638
616673
483229
485156
591699
561754
566413
63508.9
545487
543041
340709
490316
473842
530186
315035
617532
379064
561732
453863
446085
581782
359317
612175
616316
573057
574610
579361
576560
603874
618566
591485
504377
592624
232173
613844
578712
478118
596827
580776
478981
151852
372100
535233
524927
311908
302240
488590
608572
587046
575634
553320
590353
391077
526821
276125
606718
567660
561745
532588
607484
586140
588182
399485
401810
118799
578162
528222
564208
329857
432646
610860
621148
619383
595623
579580
580631
578635
276583
471896
280914
454637
612073
609111
615492
301092
589428
267247
412276
145325
340240
495144
269483
473856
603815
333799
575189
608615
260770
284702
617590
552837
262023
595312
617949
618214
513391
496783
253719
327801
594672
576828
597271
551485
594440
339732
488251
579628
606457
224676
317553
597199
393187
237361
601050
600035
362398
611656
602843
307730
617597
415550
293509
314464
612034
390877
282742
530379
539531
535434
572544
573617
609487
456589
621944
566220
610272
529119
596217
206502
617558
580895
281456
600081
459531
604005
603819
334852
608232
320104
318867
297929
298387
606677
553610
556144
146265
336338
611354
611250
573293
541198
489215
253109
608224
609995
591080
577166
192461
463017
597384
593995
129720
481625
588447
601819
581791
579408
295160
317903
602314
603947
592410
66819.7
178877
348366
600521
534685
618914
621341
197107
162009
397685
622120
547624
524616
500307
572498
533697
380286
583706
606736
527003
461694
466897
602787
470288
471476
619259
295385
501026
520782
550117
480239
604687
308268
529814
575904
195194
611176
471980
530300
606921
237292
588935
604155
208863
403459
608836
612913
501855
542246
351360
598673
101299
87998.7
600050
543317
608418
613151
293923
482272
594975
607799
483252
371740
613591
487782
61584.3
50910.3
613299
536203
539118
403918
441610
172966
583343
289671
499291
265993
587004
572435
601937
300675
356738
466174
324519
591510
164200
605311
467791
606672
577155
520713
492673
82652.5
286152
309075
360254
170828
368997
605129
595963
476824
479728
618329
425758
520044
516346
604904
273481
257785
549054
531524
594682
544383
590196
589040
502492
521634
207574
212972
367552
490202
613840
348012
516887
600275
554451
513460
513940
339939
519480
435032
603922
582321
538237
613512
550543
422416
29304.5
621200
597772
95807.4
539882
234316
618047
170639
443438
597642
112406
525988
575745
604782
610554
610195
476366
611039
454922
590193
585081
84442.5
607630
443862
588692
606221
204248
345783
499579
583812
613602
606426
493332
490873
566087
63934.3
584743
599249
373240
600121
336951
475301
41308.5
582855
244671
543354
352361
618703
595342
577396
359008
373920
571080
163551
263169
235714
233312
427451
565141
409804
376553
387151
299542
582213
581700
366364
575436
611862
69401.5
607304
548873
540362
556389
590379
597764
578891
579661
367848
586033
558165
578019
526764
521574
523610
264549
475552
478157
598126
257796
411788
485326
329175
314636
467320
204285
583184
393581
532289
530199
381618
551828
250816
467198
608408
259544
613696
345798
323664
457389
619553
468009
603840
602048
541610
471525
582422
605658
535045
63916
263981
530330
591049
571875
568364
551991
233600
598682
486127
597648
345495
606177
473993
520522
525394
529706
541377
537955
535630
552807
187767
547064
59906.9
602399
602380
601462
495780
550422
487425
616818
577495
572433
540554
164706
600777
255803
592423
619102
514184
514667
377191
48576.7
524331
278769
600925
607590
608733
607915
499255
500459
618740
610937
576171
622125
594978
610524
414930
430179
52095.4
385624
167097
581164
179475
602662
363681
609024
610595
602364
581344
213367
518466
482696
593422
430402
596175
366758
388446
475538
103676
604156
208863
209687
508056
613035
602561
328186
460946
552903
444329
509674
249549
144477
613247
448908
497919
379824
363422
361373
514205
620249
614203
511329
254726
342288
578264
613243
612987
179976
183790
607508
606589
610119
435574
461312
512980
172666
345553
589190
345192
347317
583948
528806
479629
479400
575276
531298
559189
146370
317075
396108
393019
591587
369309
607460
480218
467520
551013
84325.1
516766
277021
538460
577485
52187.3
57171.1
597358
158427
611975
96080.6
514918
564237
611580
601541
401805
553299
373960
573130
556801
560516
400357
392616
612942
125921
270860
613546
618947
614521
590144
58477.9
386716
391956
173222
574633
484826
523929
546271
221063
542575
335189
350407
616733
319265
571226
514043
330874
295226
599890
237434
177853
603890
485172
592074
572368
71112.6
457481
384345
590486
582451
585820
575009
604012
365138
580114
302995
474372
574617
521530
361399
35505.7
517693
600897
622531
505065
512146
162848
582282
505700
363544
466982
294962
551436
580732
580916
520815
466665
597647
582061
357155
352900
254456
178104
485866
577201
555216
386764
499036
577827
336834
601573
303300
103808
339628
598255
305702
551678
495949
437613
541854
497240
494313
454404
447990
503143
81040
599264
601686
261702
611054
248434
301323
405379
620919
584438
173174
142294
476719
568820
576786
537992
393874
212903
613915
613372
55609.6
489720
201424
498018
596250
594473
581342
557160
594823
398910
563342
529239
529011
281339
464289
530536
602472
395054
465435
466225
379333
394539
391154
312966
594878
603318
523957
506850
479509
476537
388474
444758
605543
597197
556123
522655
528010
389810
615191
614695
603079
384568
517374
519819
518617
523909
169926
589736
607154
124779
145531
537335
607686
606516
377910
599518
536751
218532
530398
540948
611440
610909
608664
603837
369329
596004
350085
354823
557993
461500
593233
396524
529696
515887
165192
202787
372300
98535.4
507288
99360.6
523778
596304
202001
440011
437703
612044
416735
571473
604610
73847.4
596947
613406
615673
567379
565846
425485
588276
619055
416462
605322
604973
347587
356640
603148
399302
615700
613924
608996
610266
176133
613303
596859
103568
190416
456755
588894
466460
553315
532079
480510
556487
543232
599013
598536
555398
600885
620822
614341
364651
611449
608225
608086
429610
438007
607748
504893
613277
599912
540168
621635
275394
423781
590246
536221
538987
331482
476823
520711
595513
284062
546930
609764
614991
615309
582510
617274
605358
330726
606002
578466
594569
477164
618351
417829
345627
604336
603658
543990
79612.8
538196
405223
467320
498287
500526
499778
384189
518249
616919
613203
463030
559236
433561
419007
593483
491497
485097
465333
401517
578658
524679
584218
619283
462213
612919
607817
607598
133595
475206
472891
86347.2
400144
324761
572441
591782
599357
501490
258319
264861
596256
493379
611052
259011
612847
612722
600262
552779
405109
111471
226390
444416
461267
587177
163503
164740
206205
605139
605779
580271
517341
422414
457091
397483
344799
449099
277543
539625
592128
555829
554275
613058
282326
428700
578763
362431
344109
384405
202114
548509
552034
596055
368188
459870
611397
611317
433221
435239
186972
586622
396843
92125.3
545979
354227
218986
91099.9
565902
566102
254113
613598
83190.1
615187
588858
336517
589751
588501
499583
601979
273328
329275
505814
479193
615320
611846
514864
177756
228275
611876
612226
611823
622465
341113
579090
328590
326003
579425
604431
601585
610921
240696
278725
111848
466931
465618
522267
542593
511501
621392
219381
592115
507019
620727
176279
581313
398025
295449
320925
147772
529854
543043
180784
201199
125087
171566
584246
351473
282080
298397
591888
169068
542345
615837
64272.3
592956
443318
195455
488573
377557
523831
493988
211199
602492
585086
592633
578708
612192
622332
162973
509837
593545
365827
326789
598307
597444
554841
437295
585684
606273
605760
613240
590814
215259
228831
497398
588377
603818
604207
606312
604451
506511
609905
540117
541802
547845
574395
166629
619875
588176
207037
602338
355368
594666
269167
605977
616577
592150
330910
312404
609325
617001
589350
597190
104586
346690
560693
544330
522858
515795
594487
620124
541109
608537
521242
615699
548784
548633
591910
488019
573143
472132
580987
119934
301673
593582
237578
448171
409367
122969
580274
503929
612211
584842
383155
43988.7
566168
593953
367108
219080
321858
317962
335346
457495
584922
602329
495800
380139
568792
609851
587911
532141
587669
514388
45869.4
584285
435479
423858
270879
376822
622174
622354
539389
93749.8
379628
604446
192741
591516
607289
251905
267387
114320
331818
618554
605844
527002
614293
576135
498379
618743
598146
544006
606042
313507
609279
228168
230436
344682
515832
611224
573644
559341
157569
615990
608605
475971
480950
439274
420184
550483
553062
518902
611483
226561
581406
93846.8
493996
570486
189364
606444
604557
594566
613464
613635
610163
563917
622505
538883
484206
617211
530148
592622
314072
342116
378065
538580
620851
621093
359518
490114
602386
542873
583351
161747
276689
291775
291872
621307
521099
536121
441618
582395
592253
610193
612482
189247
184892
358451
320609
610187
595360
520117
68798.3
602047
291574
438855
45322.9
422708
409960
539482
226478
560990
559116
560480
534373
495950
593021
604707
334735
613709
617476
288960
590144
323228
528396
526472
593055
594518
446981
566452
574093
576499
283290
402309
415473
583754
143301
571579
365885
382173
571207
533097
602223
68660.5
588925
586278
494343
178956
609751
594151
496800
616381
498510
593374
475174
596022
332477
296998
300469
604840
350976
563573
520705
563342
363264
433340
513382
610970
611213
579647
527525
558811
234683
612740
466446
465961
298993
600004
382561
230630
510656
601377
601954
572523
609380
618451
498210
249397
549103
96650.4
274281
495834
494827
63969
618877
275825
119651
605344
335513
590055
208484
432189
602004
611234
620466
609675
516195
606435
594300
592886
608577
611125
369910
497990
243867
551209
337859
238007
401816
336704
608754
485162
492140
191606
523211
614567
500407
35455.1
47241.7
614430
532518
58769.3
405499
602168
588837
252351
548555
609158
611099
235713
257991
95725.8
526306
526437
600075
492861
493107
40584
180555
419583
26307.6
519141
613878
181513
210395
89848.6
613263
603181
604243
614208
613708
579722
323216
327059
606166
606200
600562
606460
621734
588872
586422
492289
189618
442409
464733
290509
520594
604924
605075
367776
501113
610618
618932
622508
186315
389031
541537
296568
601978
609585
488120
488579
386103
521267
563288
368560
604301
583143
576188
573048
569502
121299
362573
376157
568667
610722
492635
152789
111701
122180
345463
268739
598071
605083
557378
141832
555977
615972
611164
521833
612315
621138
621515
529247
594952
576794
164127
598037
592413
355980
408131
522096
555661
554491
593812
494763
593260
195756
393546
399556
462608
464863
439685
427136
359682
484236
168143
189362
616148
613869
614525
612422
58554.6
47101.1
573952
557444
465269
315533
266869
571307
480305
540429
582477
27552.6
230003
463076
544614
545691
473222
607568
614583
27286
38726.6
610294
221718
589387
374885
288526
492313
586128
550271
336430
335685
608012
539416
581327
170135
613150
337030
341248
591727
458455
580475
547426
545972
264016
376538
174190
79749.4
82338.7
77155.3
611129
611397
529779
542802
592747
601427
602643
507262
437342
81805.1
612417
602593
475238
510887
510616
304515
519900
573257
399431
581141
601992
614806
596106
24195.2
438071
622541
554055
549504
512894
558215
559083
374576
248259
557098
440918
534182
539755
583428
468894
519544
466978
462978
363372
603879
578823
609598
612403
169869
557573
320806
341507
560761
447733
585601
518230
339786
388261
65686.3
377090
280617
612259
587634
599722
53752.3
46600.6
611168
518932
281981
542070
557771
550818
619946
591073
393337
418705
429034
622178
615342
594330
594606
571954
567323
358328
444997
358017
516645
537425
514368
613692
603270
609973
609568
599303
612351
160843
457462
475411
579079
577907
586604
186643
335317
457452
466991
110121
431481
270936
528164
351302
356333
324530
601816
610980
614435
603711
575603
395144
387590
548672
556951
329054
169973
184893
566812
414638
414759
177169
191505
598956
237870
244206
294140
595411
567558
75458.6
287537
557418
544399
371222
414085
515866
608472
137357
413679
495105
99872.3
567033
575732
498550
534383
611476
611150
584060
375041
317565
419562
544599
601440
358858
474077
590309
556031
134591
366553
485389
361203
174264
482976
300548
554012
507649
610332
477278
579655
596042
464121
516669
264620
251305
360856
476763
421578
83744.5
556647
525166
547073
96071.5
498246
572851
615071
614387
596342
297670
546414
159325
139992
500307
587327
604233
601203
602877
589419
588781
572845
387609
608393
584773
496398
527473
611568
610959
576101
584198
486539
519730
586571
612743
159626
400597
58165.8
98041.1
93511.3
542224
549126
549393
554811
570024
123369
559200
186934
185292
464206
390397
620843
431974
587835
426124
58991.3
550468
316893
581854
569209
610547
609470
448224
509448
610104
296627
409344
497610
389322
177215
146232
539785
582656
597297
582656
522197
570118
72130.8
618717
619030
164713
609934
100346
242045
607065
611954
570302
567577
590879
474349
474033
610963
603168
604359
523080
511816
614016
614181
601522
520678
179716
536355
594960
571135
152147
507501
521561
222501
471035
451598
510882
326424
599880
591780
592480
38689.9
598193
607581
140508
148328
393764
427513
428868
596325
517776
393406
592954
190306
568144
159844
501860
500897
379738
368402
604700
570261
567794
554577
443064
371006
618105
345177
586687
612727
560335
163763
574873
581357
562498
417586
31889.8
610699
469702
617525
77780.3
622261
203946
494600
466011
178434
559276
612570
219972
235771
191357
436595
242100
275948
166333
380611
600843
608984
497169
136061
143167
300765
493720
595701
616392
616863
375604
519648
184912
190629
201348
622114
579562
545216
583651
611573
611503
526183
531263
353749
359269
231137
548371
602007
601797
608273
168258
501966
499293
591859
493325
131327
495879
554023
377484
593938
582157
376077
470900
203946
269175
408687
402425
338048
473968
598434
592014
20099.7
485051
240658
549154
608076
613899
610182
95544.1
578520
164477
595822
608926
607878
327086
392432
480310
599528
329522
598386
620820
391492
395431
525466
587636
618931
619956
535949
428632
137852
147336
577360
605189
371856
619566
611615
611851
554542
612543
360004
359735
610659
522663
590473
176391
533326
289136
451374
449001
287468
614492
372452
591845
589251
581308
579709
598724
600216
378869
620202
575506
609070
478719
594146
529889
525688
399575
599045
118808
138875
269619
351234
363565
536243
544637
544280
570109
443848
509519
477925
405599
578811
609061
613046
282895
228734
519602
271187
168937
554783
383089
541599
308319
563746
581582
44681.3
438408
40761.5
165007
591652
528490
440811
444992
609783
571451
572339
577335
609568
445177
609691
597079
594801
603466
451450
610450
597005
612625
603485
358526
120.52
613426
542738
510902
553960
588587
479609
322829
495370
500446
300900
455087
607315
368560
560178
394386
387256
499157
179070
381648
222079
491495
466210
306833
605728
364468
608999
547039
376585
450815
618973
157172
610769
512174
575549
562706
555825
465403
465814
594274
372961
375122
619429
130754
567234
608425
528694
515159
591760
614069
221805
613664
599472
503030
508675
550738
522530
595030
471330
137120
574844
575141
582025
412695
504578
567899
600682
610641
610034
566559
12885.5
604694
606387
511993
208455
579529
585514
296900
594365
299889
305000
535746
611697
340886
406837
420097
83340.1
566573
565912
610644
433720
350281
136023
554336
597491
41303.3
494602
611482
531602
618519
275685
616814
604287
527930
525163
327941
285769
403255
610012
424673
386898
325946
517539
312731
600733
243497
521217
538141
535209
481231
284046
244797
475350
471132
470250
606803
288959
523315
589829
402932
91845.5
112813
176359
284111
555954
546815
544586
570469
194585
582787
585074
446096
324516
473695
613630
92179.1
599386
422745
620859
397440
335735
442188
357490
569782
31978.4
580069
428678
553179
604215
565141
599756
321796
250588
613556
546832
224072
523413
87743.8
547625
251200
610674
610882
596966
447775
346614
336748
483198
482841
580719
372588
609028
585186
563231
184206
610448
248614
573169
573853
265494
55621.9
515945
415009
419344
535451
609910
206828
593277
579969
362402
541043
589850
394397
609864
555933
555261
572197
600592
258736
531981
610837
550215
297463
609985
560852
591145
582012
483871
609961
352358
604066
569075
288067
493578
594926
608390
130494
135507
605572
448761
455724
493901
504994
478475
614107
496182
351614
302266
477197
127495
33929.1
610112
209409
215043
599984
600016
132496
254157
541748
435502
428301
476688
526241
529829
353678
554058
533340
358069
443392
474566
584220
173268
556552
161897
584056
44093.7
590456
586648
376479
118334
359491
294008
567689
574963
430674
604311
141238
561612
571460
561897
561289
121135
357896
612967
227201
303474
268119
305920
120999
593178
567067
595835
497399
614631
456826
560946
99264.4
500034
609257
287808
552622
321638
618866
618905
337248
577105
396093
601871
499927
610671
345230
575392
529716
126998
405408
406939
273746
577174
552041
303108
397852
621693
580366
479161
534590
576593
611916
612333
585123
416385
616694
621105
505529
228931
241833
610199
517844
609639
593637
605138
537434
594841
604317
510548
511543
574303
126288
510994
444678
404444
384218
467525
466125
106084
553099
578587
576703
500898
499576
550315
550481
491278
281359
583007
178195
455122
536796
594537
613988
38271.1
525277
334769
594665
594233
226630
551168
416518
263599
569331
607180
187281
574265
574070
583348
619365
581693
611990
613938
19300.7
613684
326435
594995
444071
368721
158288
172110
66992.4
129620
443489
122298
579093
605736
605214
613471
441359
145012
134282
538981
106008
362098
359292
581297
606063
456877
357741
601997
242094
574881
589756
109296
514666
41556.1
38139.9
384242
485918
622204
609708
544392
305756
316592
588238
587073
610602
162723
483303
283580
613828
504514
346478
481592
484671
535247
466765
619641
621690
158678
157942
611400
151098
579235
450312
573240
576385
327833
216484
373424
256449
379553
423676
592052
321189
598811
597480
221297
610563
138631
490702
610438
551066
534950
608217
613270
445516
315210
300218
511906
405706
572447
396021
401716
610233
618813
500633
580020
616050
533654
323989
335985
584890
469640
621930
622071
125706
107930
105107
35940.8
51029.9
615173
616026
556965
236358
508198
140088
497914
497700
525625
609016
163254
581741
590478
593932
391712
493641
622075
567860
592629
392858
577039
335729
531376
593924
61736.5
51221.6
146578
559519
132795
608976
360813
357662
164406
488337
305063
502200
447358
607144
248059
552457
612120
34470.5
513115
399723
555634
616203
584248
385702
594965
533393
376011
71530.7
462439
601399
472594
492387
85131.3
579485
579353
363568
544054
330374
330123
384379
575096
493521
493607
473954
605298
48790.9
48828.6
175289
165984
605398
609799
617801
442282
593509
323211
343661
577311
197524
224396
416072
605274
504199
581782
560309
558972
444240
539024
505851
460796
458694
613770
598535
522158
516736
376000
608407
615477
546490
103056
609584
523761
612395
590906
565739
604304
608354
574535
571806
620212
582487
322378
317557
478194
611954
265927
405679
142830
156315
566583
608879
465135
362225
613241
568433
488592
495603
614630
577033
613228
422616
602270
295508
559890
610471
600827
309967
484542
532701
534223
610301
400591
576808
572551
569614
286303
609986
603995
527974
242853
603464
603234
417064
602619
369541
386562
602124
436387
582318
606966
393836
246272
419909
170246
362241
371242
577771
576986
581246
535678
130455
613297
459334
609331
608978
112064
301033
612320
526564
105379
576124
610934
610706
300400
609035
538470
496447
338909
496364
612521
358816
610611
599655
573600
522149
609005
39439.9
486914
492980
601522
599954
612756
146871
137541
192871
552767
610939
450438
384636
600183
601144
523651
588771
589974
544805
610809
584045
421855
482127
487352
510472
596184
202397
293621
595956
358832
335183
230369
203077
172926
593777
593874
420604
593144
523059
370652
612496
506167
512322
97731
604543
605242
422089
602514
281452
348726
364455
578697
598249
157243
332215
505786
30246.5
199369
423807
313762
501482
613274
259259
453902
450102
369960
560817
557686
593075
416956
425018
479767
597038
349146
341729
505846
396035
398687
622682
611936
165769
145332
566820
618130
205411
582630
609917
577689
554620
210909
602425
572675
120023
609745
510552
558712
248272
272936
441466
591555
349850
510407
592894
594141
597166
531420
609721
141395
554678
510828
456934
499962
501394
554657
580762
581424
581876
358084
382919
600591
145488
499228
599635
611754
622846
481124
534236
532726
100765
275226
263924
528991
556330
553449
618986
547659
608074
560611
567295
514918
494649
303838
95684.8
446452
454837
418640
197426
215698
607405
67628.4
612799
583102
592630
583177
159189
534473
594005
593363
551182
538268
305530
156293
557570
541472
535558
509440
42536.8
313132
272543
561102
584536
567099
590886
591308
449985
587875
598398
388312
530779
400235
472608
478121
531930
328537
526596
527476
517767
115632
239219
491086
498778
323265
328815
557009
606283
545966
546680
617788
124857
583439
57797.5
600003
552054
595087
562274
552329
609577
101259
519094
440078
438361
497322
589942
280704
518714
397902
254012
616974
615087
496749
360479
356760
116421
508647
412445
422214
463891
99636
104831
332338
521181
208799
188508
457216
581180
351389
204928
598321
415923
546866
606948
591703
163269
591378
613587
594515
346628
403938
607525
608021
592588
145973
348287
313276
554419
585492
608896
532952
610305
563800
572227
366744
607442
548356
70648.9
62289.4
573724
614332
72097
543676
586742
585931
374313
607508
590148
419745
571647
602824
602899
447379
615695
594723
544457
621858
223457
593195
475538
403868
415155
611388
522689
582176
15847.4
553034
545296
459897
598737
455383
454439
610487
444450
614032
402441
398427
611813
177834
90081.4
99909.3
609485
277433
76346.1
580238
107821
385777
387048
569729
585642
603069
599878
600155
541761
567364
564011
614295
373448
522635
596306
556987
534459
453120
553406
597283
223529
406297
466702
348447
124094
593585
593576
539231
616590
602227
462365
585164
497529
501854
542656
609446
437915
306255
322735
292019
186295
188737
191639
340978
336508
576107
459357
308224
309559
605482
332279
331867
570453
509117
419074
432340
433317
612181
380254
371091
361380
419781
561595
609267
573685
603547
456347
520264
482454
252370
579899
352764
362501
608680
375541
599775
609371
433687
608471
599693
598399
460937
139340
495495
492925
260896
280400
592338
558826
587589
586988
448385
136462
524757
296732
505702
534797
584457
605642
187523
620693
189102
593113
610041
517953
358216
605428
79031.3
67775.5
588799
596312
159862
529748
493141
618197
504111
609845
612590
567564
428053
591826
359710
544518
478832
500617
535851
611436
611016
533792
598106
213571
470275
514828
378574
515188
617537
581232
605162
465671
381713
502695
184973
501575
154315
609809
610230
334387
496107
160544
347339
427073
544703
191670
581245
507457
490607
482637
580720
594760
562651
307257
343135
527910
143086
609353
609018
611696
230809
318418
590161
609118
575634
576235
427559
505157
592911
589576
458235
388364
595522
398448
335672
616830
599920
422258
598420
96899.5
123405
462834
618511
596202
498954
467422
564564
526822
608659
385884
443221
515544
268276
251664
424393
408882
511972
519133
582139
581180
560552
129429
314645
506487
603203
602770
519939
252765
341367
243039
576090
601410
600726
228923
608564
610259
361840
358798
425255
430663
609123
538075
516256
582982
365620
345398
351798
440740
514355
361922
578915
49343.3
453606
40064.3
541477
583146
496616
576157
390299
597193
324936
390093
526235
531345
483920
487188
110209
446489
605152
234323
475652
462304
494422
286885
508447
327897
344655
492417
497998
570446
572873
44350
361489
480724
428579
578970
585113
341454
335888
613618
602186
545188
587819
590250
611697
545063
436363
521985
556115
482893
609840
79553.3
576061
536103
593516
590767
33450.8
126350
144205
437668
510428
308082
438124
582265
605472
613544
527666
495399
499683
611034
37754
612772
592307
392827
565200
203894
283976
291388
612747
613184
284330
606464
499799
591423
611882
367226
615841
618044
560369
601836
602420
67363.3
255137
265045
593508
221193
428533
524655
612424
243651
327663
597714
493332
416848
610445
546003
591972
613034
101380
596679
591850
595277
604175
538540
538059
602801
162737
600273
401185
240055
608060
398445
252529
450947
604577
604839
606521
604451
578507
248295
584732
583024
324230
565860
571679
621146
606651
255761
245282
597489
232315
580168
601648
576149
569030
596272
501025
503718
589056
606364
315770
283717
129498
593677
594290
352331
565963
392720
537575
540902
533588
370787
367589
567470
370127
612927
49160.6
352097
596663
321228
545227
531967
537312
539963
613236
595220
589387
587554
586591
543634
271266
268071
218828
607680
477249
326284
581162
611851
83167.8
422793
67555.9
608293
617363
588040
611564
527491
597432
32178.4
491976
571655
572573
486924
611654
611934
432516
610269
478764
607631
607611
162446
580248
478165
202187
225690
223028
109516
349284
609239
609203
553632
551215
610753
602065
468135
117275
155367
509554
598203
612207
618371
102724
119863
357864
165386
608240
501933
356677
596260
481238
485139
609245
306679
493921
121920
193712
530393
483518
573306
591168
620112
360080
608548
200344
303471
257490
621893
565831
598995
311032
512361
606995
60427.4
510136
505970
466521
170206
172393
589514
590019
538504
602456
583739
578946
541561
56378.3
240686
612899
437595
447702
604727
246306
499390
397470
275307
609784
604061
604819
12847.8
22168.2
350453
591553
144496
135067
612986
417367
419830
371961
334366
72360.1
69819.5
491716
539136
121330
572762
590490
595348
468261
418443
602086
540271
613677
35818.2
152080
375971
496078
618070
305594
622344