/*--------------------------------*- C++ -*----------------------------------*\
  =========                 |
  \\      /  F ield         | OpenFOAM: The Open Source CFD Toolbox
   \\    /   O peration     | Website:  https://openfoam.org
    \\  /    A nd           | Version:  7
     \\/     M anipulation  |
\*---------------------------------------------------------------------------*/
FoamFile
{
    version     2.0;
    format      ascii;
    class       surfaceScalarField;
    location    "12";
    object      phi;
}
// * * * * * * * * * * * * * * * * * * * * * * * * * * * * * * * * * * * * * //

dimensions      [0 3 -1 0 0 0 0];

internalField   nonuniform List<scalar> 
19623
(
3.04418e-05
-2.94152e-05
-1.02668e-06
0.000561537
-0.000393894
-0.000167643
-0.000125645
-0.000117715
0.000243361
3.86408e-06
6.71641e-05
-7.10282e-05
-0.000392466
0.000218922
0.000173544
-0.000256918
0.000345297
-8.83795e-05
-0.000131942
-0.000124976
-1.64691e-05
-7.23446e-05
8.88137e-05
-2.13813e-05
4.98858e-05
-2.85044e-05
0.00110639
-0.00041622
-0.000690171
0.000996746
0.000109644
-6.3531e-05
0.000157457
-9.39261e-05
4.47661e-05
-0.000130019
8.52527e-05
2.9671e-05
5.76576e-05
-8.73286e-05
0.000105779
-0.000143139
3.736e-05
6.54887e-05
-2.80573e-05
-3.74314e-05
1.98325e-05
-1.17944e-05
-8.0381e-06
-2.3267e-05
2.3892e-05
7.38998e-05
0.000168194
-0.000242094
0.000192202
-0.000118303
-0.000285187
0.000199613
8.55733e-05
-4.0779e-05
-2.77566e-05
6.85356e-05
0.00013542
-3.15402e-05
-0.00010388
-0.000436831
0.000179282
0.000257549
-4.90261e-05
0.000104505
-5.54794e-05
-0.000117656
6.86294e-05
-3.99814e-05
-5.82834e-06
4.58098e-05
-7.14107e-05
-0.000365421
-0.00028235
0.000218818
1.13956e-05
-1.39521e-05
2.55653e-06
1.06906e-05
7.05193e-07
-3.70115e-05
8.80188e-05
-5.10073e-05
0.000163251
-0.000184889
2.16374e-05
0.000447028
-0.000244131
-0.000202897
0.000338298
0.00010873
4.57091e-05
6.00708e-05
2.5931e-06
-1.44811e-05
1.1888e-05
-0.000225527
0.000314891
-8.9364e-05
-0.00015345
0.000134977
1.84724e-05
-0.000181318
0.000113211
6.81072e-05
0.000131358
-4.90336e-05
-8.23245e-05
-0.000361019
0.000492376
0.000194288
-0.000543646
0.000349357
0.000378729
-0.000472155
9.34258e-05
0.000218974
3.7812e-05
-0.000256786
0.000223233
-0.000163617
-5.96165e-05
-4.93922e-06
7.27714e-05
-6.78322e-05
5.47731e-05
0.000716332
-0.000771105
0.000260915
-0.000206142
3.35626e-05
1.68947e-05
-5.04573e-05
0.000207754
-1.64432e-05
-0.00019131
0.000280133
-7.23799e-05
-0.000101001
1.22889e-05
8.87124e-05
-7.7937e-07
1.08391e-05
-1.00597e-05
-0.000201917
8.39806e-05
0.000117936
0.000143891
-2.09282e-05
-0.000122962
-0.000264391
0.000306811
-4.24201e-05
-7.22886e-05
1.50819e-05
5.72067e-05
-0.000155898
-4.6019e-05
9.45829e-06
-2.35537e-06
-7.10292e-06
-2.73039e-06
6.31149e-06
-3.5811e-06
-2.07234e-05
1.38464e-05
6.877e-06
-2.05803e-05
-3.68536e-05
5.74339e-05
1.76913e-05
6.83134e-05
-8.60047e-05
0.000222757
-0.000158328
-6.44297e-05
1.19722e-05
0.000210786
4.24059e-05
2.30829e-05
-1.93984e-05
-3.22712e-05
5.16696e-05
-5.44686e-05
-0.000337996
-0.000227973
0.000166728
6.12447e-05
0.000407078
-0.000191865
-0.000215214
5.19409e-05
-2.85532e-05
-2.33877e-05
5.80483e-05
-5.80483e-05
-0.000193941
0.000174542
0.000444889
-4.23618e-05
-0.000402527
-2.16017e-05
-4.68157e-07
2.20698e-05
8.135e-05
1.68897e-05
-9.82397e-05
3.99934e-05
6.68562e-05
-0.00010685
-0.000107278
4.412e-05
6.31576e-05
4.27307e-05
-0.000150008
-5.57013e-06
-1.71043e-05
2.26744e-05
-0.000276817
0.000137785
0.000139032
0.000338926
-5.63196e-05
-0.000282607
0.000250296
8.86311e-05
0.000371278
7.36105e-05
0.000458686
-0.000329837
-0.000128849
0.000203411
0.000255274
-6.93747e-05
-0.00017945
0.000248825
0.000117906
4.80466e-05
-0.000165952
2.22121e-05
9.56933e-05
0.000235776
0.000177442
-0.000413218
4.47598e-06
8.00453e-06
-1.24805e-05
-0.000370986
0.000303182
6.78034e-05
-0.000128697
-0.000242289
8.31399e-05
-3.2902e-05
-5.02379e-05
-5.35699e-06
2.9392e-05
-2.4035e-05
-0.000273727
7.68125e-05
0.000196915
0.000105255
5.79963e-05
-7.34581e-06
1.98913e-06
0.000108147
-0.000101491
-6.65597e-06
0.000256792
-0.000148644
-2.19625e-08
0.000434207
-0.000434185
2.48621e-05
0.000211282
-0.000236144
1.7662e-05
5.83122e-05
-7.59742e-05
-0.000183732
9.05404e-05
9.31911e-05
6.33985e-05
-0.000232686
0.000169287
-0.000358146
0.000120295
0.00023785
0.000272021
0.000381169
-0.000653191
-2.48321e-05
3.23077e-06
-0.000153449
-0.000101113
1.85262e-05
8.25864e-05
-0.000308231
0.000552782
-0.000244551
0.000474258
-0.00078249
0.000167329
-4.48882e-05
-0.000122441
2.90699e-05
-4.20747e-06
-3.3483e-05
-9.77356e-05
0.000131219
7.58198e-06
-8.36107e-06
-0.000211728
-0.000161711
0.000373438
-0.000211833
0.000272152
-6.03194e-05
-0.000179657
7.45256e-05
0.000105131
-2.38343e-05
-0.000155822
-0.000822769
0.000822769
-5.25893e-05
6.8848e-05
-1.62587e-05
7.76557e-05
0.000230184
-0.00030784
0.000193857
-0.000152083
-4.17742e-05
0.000247959
-5.41019e-05
-0.000201543
-8.36435e-05
6.57167e-05
-4.91694e-05
-1.65474e-05
6.16629e-05
3.01472e-05
-9.18101e-05
-0.000189734
-7.46584e-05
-0.000721557
3.83381e-05
-0.000630739
0.000109359
7.97874e-05
1.01244e-05
-8.99118e-05
-0.000574534
0.000290567
0.000283968
-3.67241e-05
0.000204053
4.21722e-05
-3.9524e-05
-2.64814e-06
9.59311e-05
-1.45812e-05
1.88166e-05
-1.64457e-05
-2.37091e-06
0.000148316
0.000130616
-0.000278932
-8.665e-06
9.18053e-05
-0.000313507
-0.000102208
-0.000227627
-0.000267686
0.000165477
-4.45052e-05
-6.22291e-05
0.000106734
0.000230373
-0.000274878
-4.60949e-05
-7.82754e-05
0.00012437
-0.000161988
0.000114132
4.78565e-05
-7.32875e-05
0.000163089
-8.98016e-05
8.11207e-06
-8.22632e-06
1.14245e-07
0.000254146
-0.000109971
-0.000144175
-0.000308259
0.000345561
-3.73013e-05
8.7774e-05
-0.000246101
0.000192668
-0.000104894
-0.000278845
-3.5046e-06
5.49414e-05
-7.96456e-05
2.47042e-05
-0.000124961
0.000268852
-0.000131363
0.000236775
-0.000105412
-0.000585402
0.00043277
0.000152631
0.000499822
6.17141e-05
0.000140867
4.26092e-06
-0.000145128
-2.02515e-05
0.000161118
5.85275e-05
-0.000284054
-0.000200101
0.000115392
8.47086e-05
8.60184e-05
-0.000108419
2.24004e-05
1.44562e-05
0.000135915
-0.000150371
-0.000108274
2.93415e-05
7.89327e-05
-1.21293e-05
-1.64134e-05
2.85427e-05
1.76912e-05
-9.3674e-05
-1.46006e-05
-0.000209368
-0.000108441
0.000317808
5.43267e-05
-0.000261869
0.000207543
0.000219548
-7.15014e-05
-0.000148047
0.000148677
7.08712e-05
0.000420388
-1.33115e-05
-9.90023e-05
0.000135351
-3.63484e-05
4.05256e-05
-6.24117e-05
2.18861e-05
-4.1204e-05
-9.76057e-05
0.00013881
6.46611e-05
0.000171116
-2.81521e-05
7.32566e-05
-4.51045e-05
0.000218818
-0.000157155
-4.95288e-05
4.96846e-05
-1.55889e-07
0.000199209
0.000355461
-0.000554669
8.32724e-06
-7.70224e-06
0.000173799
-0.000154983
-0.000193085
0.000270854
-7.77689e-05
-3.63306e-05
-0.000268367
0.000304698
-2.2484e-05
-1.38465e-05
5.56719e-05
-1.51469e-05
0.000123159
-0.000170168
4.70087e-05
-5.64002e-05
-6.40843e-05
0.000120484
0.000165872
-3.0709e-05
-0.000135163
-1.15799e-05
1.60562e-05
-0.000160034
9.05951e-05
6.94387e-05
-3.45134e-05
2.96606e-05
4.85288e-06
3.2543e-05
-1.21294e-05
-2.04136e-05
-1.29171e-06
-0.00010475
0.000106041
0.000325782
-0.000126572
0.000205332
-0.000221498
1.61663e-05
9.00459e-05
-6.05814e-05
-2.94645e-05
-2.58827e-05
-1.83033e-05
4.4186e-05
6.68681e-05
-6.2419e-05
-4.44909e-06
0.000110989
0.000356834
-0.000519917
0.000163082
4.25406e-05
-8.9787e-06
6.11041e-05
-9.45862e-05
0.000396359
-0.000208713
-0.000187646
1.87161e-05
-0.000211801
-0.000471241
-0.000573328
-1.34878e-05
1.81892e-05
-4.70144e-06
-0.000197799
0.000152546
4.52533e-05
-0.000119778
-5.86644e-06
-0.000565183
-0.000526011
3.57706e-05
6.69654e-05
-0.000102736
5.29723e-05
-1.9283e-05
-3.36893e-05
-0.000405087
0.000405087
8.36895e-05
1.13274e-05
-9.50169e-05
5.50391e-05
-7.14413e-05
1.64022e-05
-5.84763e-06
-7.64032e-06
-0.000117054
-6.61392e-07
-0.000217647
-0.000275893
0.000245351
-2.63777e-05
3.64468e-05
4.10152e-06
-4.05483e-05
-0.0002306
-8.55901e-05
0.000233906
-0.000193996
-4.54762e-05
0.000239472
-1.58987e-05
1.84918e-05
-1.21877e-05
-2.95888e-05
4.17765e-05
-9.00563e-06
-1.42616e-05
5.17855e-07
-1.05761e-05
1.00582e-05
-1.31031e-05
4.51591e-05
-3.20559e-05
5.70538e-05
-4.78598e-06
-5.22679e-05
-0.000184948
0.000176283
-3.89517e-05
-0.000145996
7.46994e-05
-4.50289e-05
-4.96468e-06
-2.3188e-05
-1.13838e-05
-2.85973e-05
-0.000500472
0.00069476
0.000125387
-3.10092e-05
-9.4378e-05
-0.000113233
0.000238621
-3.48008e-05
-0.000150087
0.000485174
-0.000547095
6.19211e-05
0.000226303
0.00025887
6.27379e-05
-5.77977e-05
-4.94022e-06
-0.000107102
0.000118303
-1.12011e-05
-0.000101469
-5.63333e-06
8.45944e-05
-2.69377e-05
-0.000133931
0.000207151
-7.32208e-05
3.89423e-05
-0.000172873
-9.53598e-05
2.19395e-05
7.34203e-05
-2.01255e-05
-1.60672e-05
3.61928e-05
6.35011e-05
-0.000122174
5.86731e-05
0.000133983
-0.0005434
0.000409417
0.000101583
-4.43662e-05
-5.72169e-05
-2.34043e-06
0.000103923
0.000407572
-2.58716e-05
-0.0003817
-1.4955e-05
2.59429e-05
-1.09879e-05
0.000119635
-0.000415326
0.00029569
-0.000857211
0.000135654
-0.000575058
-5.56812e-05
-0.000469849
0.000332896
0.000136953
-0.000240477
0.000145115
9.53614e-05
6.79371e-05
-3.8397e-05
-2.95401e-05
1.28799e-05
-4.93964e-05
3.65165e-05
-8.58546e-07
-1.74108e-06
2.59962e-06
6.434e-05
-9.02231e-05
-0.000338234
-0.000139597
0.000477831
-0.000133139
6.82854e-05
-0.00011438
-0.000274176
0.000106902
0.000167275
-4.34838e-06
-8.72928e-06
1.30777e-05
7.45552e-05
-3.5907e-06
-7.09645e-05
0.000100742
-2.61866e-05
2.9693e-05
2.83551e-05
-2.78736e-05
1.2321e-05
1.55527e-05
-9.11165e-07
2.69173e-05
-2.60061e-05
-0.000121661
-0.000176942
0.000298603
-6.33209e-05
3.08845e-05
3.24364e-05
-7.1884e-05
8.56301e-06
-0.000187221
-4.07524e-05
0.000113879
8.59186e-05
-0.000199798
-5.90573e-06
-1.68405e-05
2.27462e-05
0.000206658
-0.000155649
-5.10091e-05
-8.54298e-05
0.000292087
-5.47302e-06
2.31348e-05
0.000107776
-0.000114871
7.09509e-06
-0.000102223
4.92636e-05
5.29599e-05
2.54617e-05
-0.000127685
2.88693e-05
-1.67782e-05
-1.20911e-05
0.000343289
-0.000783739
0.00044045
-3.3848e-05
2.16603e-05
-1.75681e-05
5.75615e-05
0.000782807
-0.000759716
-2.30906e-05
0.000324663
-0.000285343
-3.93198e-05
-0.000180181
0.000200761
-2.05804e-05
-3.59313e-05
3.15826e-05
4.41008e-05
-1.63167e-05
-2.77842e-05
3.33762e-05
-1.05624e-05
-2.28138e-05
3.31676e-05
2.08758e-07
6.39077e-05
-7.23916e-05
8.48389e-06
-2.13078e-05
8.52155e-05
-0.000161137
-4.08017e-05
0.000201938
0.000151318
-0.000197561
4.62429e-05
-1.69871e-06
-4.50932e-05
4.67919e-05
7.91429e-05
-8.08412e-05
-0.000462001
0.000141908
0.000320093
-0.000624198
3.87967e-05
8.30621e-05
-0.000150146
6.7084e-05
-0.000127197
0.000228698
-0.000101501
-3.78632e-05
4.17277e-05
4.6787e-05
-0.000207924
9.08784e-05
1.68972e-05
-2.0515e-05
-1.48333e-06
2.19983e-05
0.000145913
4.1036e-05
-0.000186949
1.16894e-05
-2.67364e-05
1.5047e-05
4.27294e-06
4.05433e-06
-1.21516e-05
-4.04376e-05
3.14399e-05
-4.35915e-05
4.70616e-05
5.91044e-06
1.08346e-05
-1.44388e-05
3.60415e-06
0.000429597
-0.000110549
-0.000319048
2.59964e-05
-0.000199286
0.000173289
-3.18537e-05
9.7257e-05
-6.54033e-05
1.24135e-05
-6.07498e-06
-6.33849e-06
3.49519e-05
-2.25385e-05
2.53721e-05
6.44503e-05
-8.98224e-05
5.40512e-06
-5.73532e-05
5.1948e-05
-4.23157e-05
-0.000168912
0.000211227
-0.00016365
0.00016217
1.47982e-06
4.66285e-05
-0.000118387
7.17584e-05
5.42412e-05
0.000199905
0.000295721
-0.000154584
-0.000141137
0.000152583
8.20628e-05
-2.89794e-05
-5.30834e-05
-3.42874e-05
0.00011635
-0.000190288
-8.34385e-05
-3.19189e-06
-4.87149e-05
5.19068e-05
-0.000196748
0.000193556
1.18436e-05
4.51465e-05
-5.69901e-05
-3.2977e-05
1.24619e-05
0.000432369
0.000260928
-0.000693297
0.000207119
-9.32407e-05
-3.77722e-05
1.71917e-05
1.56624e-05
-9.47739e-06
-6.18498e-06
0.00023006
0.000306826
-0.000536886
3.08032e-05
0.000199256
6.13781e-05
-7.8946e-05
4.7623e-06
1.44727e-05
-1.9235e-05
-0.000122214
0.000126976
5.49286e-05
-4.17814e-05
-1.31472e-05
-0.000341852
0.000528445
-0.000186593
-0.000435079
9.32266e-05
-3.32061e-05
2.10771e-05
-0.000144039
7.07518e-05
5.93158e-05
-3.86354e-05
-2.06804e-05
2.70421e-05
3.22738e-05
-4.24573e-05
6.35603e-05
-2.11031e-05
8.95056e-05
-3.51648e-05
-5.43408e-05
3.98713e-05
4.96341e-05
-8.54645e-06
7.63546e-06
2.7193e-05
1.71305e-05
-4.43234e-05
-6.45384e-05
0.000195702
-0.000131163
-4.07094e-05
2.42962e-05
0.000189042
-3.48029e-05
-0.000154239
7.89834e-05
-0.000132538
0.000549956
-0.000417418
0.000432642
-0.000209408
4.99216e-05
-3.00892e-05
5.67629e-05
0.000140769
-0.000197532
-7.92698e-05
0.000136033
0.000283756
-0.000285048
-1.24877e-05
1.27009e-06
1.12176e-05
-2.24363e-05
-5.99952e-06
2.84358e-05
0.000385677
-0.000266041
-4.41367e-05
-9.79226e-05
0.000142059
-8.29588e-05
5.22162e-05
3.07425e-05
-9.93886e-06
1.63857e-05
-6.44686e-06
0.000203537
-0.000359186
0.000389138
5.93771e-06
-0.000395076
-0.00034187
0.000124222
-2.56028e-05
-6.89441e-05
9.45469e-05
-8.18075e-05
-0.000130026
0.000259944
0.000162759
-0.000422702
1.14914e-05
2.10519e-05
0.00012807
-6.31112e-05
-6.49592e-05
-9.08717e-05
0.000162131
-7.12595e-05
0.000249305
-0.000202676
-0.000291447
-5.89517e-05
7.9499e-05
-2.05473e-05
0.000516602
-0.000297244
-0.000219359
-9.43777e-05
-0.000155708
0.000250086
4.11795e-05
-3.51178e-05
-6.06172e-06
-2.64045e-05
3.29521e-05
-6.54765e-06
1.66989e-05
-4.31037e-05
-0.000237799
0.000139619
9.81796e-05
-0.000294117
-1.25093e-05
5.608e-05
-4.35707e-05
-1.99406e-05
7.45267e-06
-0.000190246
-8.657e-05
-0.000138988
-0.000152459
-1.65955e-05
-9.66372e-05
-0.000136435
-0.000505155
0.000641591
-2.42766e-06
-0.000134007
-2.46354e-05
0.000122232
-9.75969e-05
-1.7191e-05
1.04145e-05
6.77653e-06
-6.332e-06
-1.02634e-05
0.000283666
-0.000276307
-7.35881e-06
4.74698e-05
2.04674e-05
1.98504e-05
4.1656e-06
-2.4016e-05
7.77838e-05
-0.000120099
-0.000144258
0.000193068
-4.88091e-05
-5.44267e-05
-8.98323e-05
0.000171468
-0.000123837
-4.76304e-05
0.000179846
-0.000209445
2.95989e-05
-1.02691e-05
4.07631e-06
6.19283e-06
-0.000134683
7.17325e-05
6.29501e-05
-2.96451e-05
-1.28118e-05
-0.000919
0.000321103
0.000597896
9.23223e-05
5.51618e-05
-0.000147484
9.45355e-05
7.10519e-06
-0.000101641
-1.60017e-05
4.53429e-05
-2.22442e-05
-0.000161487
1.68308e-05
-8.9912e-06
-7.83965e-06
-1.61555e-06
1.84467e-05
3.29978e-06
6.17583e-06
-9.47561e-06
0.000252864
0.000136276
5.65717e-07
-5.40183e-05
5.34526e-05
-0.000325161
0.000140045
0.000185116
-7.59116e-05
7.59116e-05
-2.23382e-06
-2.31463e-05
2.53802e-05
-5.86778e-05
-7.26857e-05
-0.000206376
0.0003964
-0.000190024
-8.23431e-05
-9.36733e-06
9.17104e-05
6.68054e-05
9.18471e-06
-7.59901e-05
-9.84602e-05
0.000189001
-0.000212483
-0.000249518
-5.79032e-05
0.000193323
2.9514e-05
5.30158e-05
-8.25298e-05
0.000492378
-0.000189196
-0.000205001
0.000262235
-5.72339e-05
1.43851e-05
0.000119215
-0.0001336
6.33813e-05
0.000253209
-0.00031659
-0.00017979
-2.94206e-05
4.12643e-05
0.000253917
-0.000169863
-8.4054e-05
-4.82504e-06
4.89262e-05
0.000754917
-0.000754917
6.43067e-06
5.54723e-06
-1.19779e-05
2.24537e-05
-4.79622e-05
2.55085e-05
3.87556e-06
-1.88091e-05
1.49335e-05
-8.42665e-05
7.17573e-05
-1.91652e-05
-7.52733e-06
2.66925e-05
-0.000122841
0.000103676
-5.93814e-06
1.63913e-05
-1.04531e-05
-0.000173218
0.000491137
-0.000317919
-8.58077e-05
0.000115406
-2.95987e-05
-5.39197e-07
-8.13994e-06
8.67914e-06
2.43763e-05
-2.24369e-05
-1.93941e-06
1.03434e-05
-2.74002e-05
1.70568e-05
8.60305e-05
-2.32926e-05
2.97818e-05
6.8638e-06
-3.66456e-05
-6.91635e-06
2.23463e-05
-1.54299e-05
0.000314848
0.000402862
-0.00071771
2.30888e-06
8.53033e-06
3.27851e-05
2.56931e-05
-5.84782e-05
1.20701e-05
-1.79213e-05
5.85123e-06
4.88807e-06
-4.9025e-05
0.000123133
-3.08104e-05
-3.51948e-05
2.13586e-05
1.38361e-05
7.61495e-06
0.000185539
-0.000193154
0.000174299
-0.000166684
-0.000431795
-3.80541e-05
4.10965e-05
6.06796e-06
-4.71645e-05
-2.80108e-05
-0.000348292
-0.000226243
0.000179018
-0.000115638
5.43484e-06
2.67753e-06
-0.000248375
0.00027878
-3.04048e-05
2.92094e-06
2.51405e-06
4.66127e-05
4.93183e-05
0.000115275
-6.86621e-05
1.42289e-05
-3.8852e-06
0.000443522
-0.00023224
6.87088e-05
1.10785e-05
-0.000351891
0.000356688
-4.79726e-06
0.000317619
-0.000658829
0.00034121
0.000128745
7.65872e-05
-0.000180206
0.000378417
-0.00019821
9.45836e-06
-4.13118e-05
-0.000135949
0.00040797
7.49192e-05
-1.78655e-05
-0.000143491
9.00194e-05
5.34715e-05
1.44548e-05
8.35956e-06
-2.28143e-05
0.000586301
-0.000547718
-3.85826e-05
-4.64816e-06
3.78955e-06
0.000645436
-0.000152483
-0.000492953
3.07036e-05
5.93427e-05
-0.000175089
-0.000280977
0.000456067
4.10233e-05
1.38278e-06
0.000181037
-0.000243919
6.28822e-05
-5.87783e-05
1.0264e-05
4.85143e-05
5.86151e-06
3.47298e-05
-2.02752e-05
0.000699534
-0.000319036
-0.000380498
-6.7999e-05
-0.000337088
-4.11082e-05
4.03208e-05
7.87406e-07
2.03049e-05
4.65516e-05
5.51241e-05
-5.77883e-05
2.66426e-06
9.7388e-05
-0.000317961
0.000220573
-0.00020331
0.000252573
-0.000263897
6.0587e-05
0.000291298
0.00035414
0.000108966
0.000114008
-0.000222974
0.000360185
-0.000208866
-0.000433292
0.000378883
5.44093e-05
9.13132e-05
3.59416e-06
-9.49074e-05
6.39533e-05
-0.000191861
0.000127908
-4.69952e-05
3.56922e-05
1.13029e-05
-0.000169641
0.000134531
3.51101e-05
0.000228843
0.000357458
3.24689e-05
2.246e-05
2.28034e-05
-5.88975e-05
3.60941e-05
2.26082e-05
1.94864e-07
0.000124265
-0.00023567
0.000111405
0.000307057
-0.000318827
1.17697e-05
0.000284843
2.22133e-05
2.61922e-05
-3.79506e-05
1.17584e-05
-0.000116302
0.000101413
1.48895e-05
-1.54819e-05
2.40274e-05
-8.54543e-06
1.69851e-05
3.67214e-05
-5.37065e-05
-7.15776e-05
8.85624e-05
2.62669e-05
-8.16245e-05
5.53577e-05
0.000143492
-4.89566e-05
-0.000195875
0.000176417
1.94577e-05
0.000704339
-0.000352239
-0.0003521
-2.56437e-05
1.09011e-05
1.47425e-05
-4.39451e-05
1.83013e-05
0.000310111
0.000225344
-0.000535455
0.000217554
-4.63474e-05
-0.000171207
0.000233716
-1.61619e-05
-3.89277e-05
-0.000243679
0.000246114
-0.000100092
-0.000146023
1.67662e-05
-2.26722e-05
0.000177252
0.000178208
-3.72027e-05
-4.57555e-05
0.000146064
3.3783e-05
0.000234077
3.69428e-05
-3.88076e-05
1.86481e-06
0.000513121
-0.000513142
-1.38975e-05
-7.53421e-06
2.14317e-05
-2.3082e-05
7.59993e-06
-2.9873e-06
6.49863e-05
-6.1999e-05
-0.000166514
0.000163527
1.94441e-05
7.80041e-06
-2.72445e-05
-4.9273e-05
6.87173e-05
1.7295e-06
4.1529e-05
-4.32585e-05
-3.15168e-06
6.45079e-06
-0.000134507
4.58282e-05
8.8679e-05
5.34275e-05
-0.000139235
3.12292e-05
-0.000132342
-0.000193461
-0.000629308
8.22781e-06
1.23024e-06
-8.8998e-05
8.49667e-05
4.03131e-06
5.88984e-05
-5.65377e-05
-2.36066e-06
7.96235e-06
4.71619e-05
0.000134774
-5.14554e-05
-8.33181e-05
7.07175e-05
-7.83296e-06
-6.28845e-05
0.000131309
-4.39935e-05
-8.73153e-05
2.53153e-05
0.000151937
6.66155e-05
-0.000145341
7.87253e-05
-4.38633e-05
-8.3334e-05
-0.000431465
0.000522019
-9.05546e-05
-0.000259998
-7.62914e-05
8.75947e-05
-1.13033e-05
1.4205e-05
1.97057e-05
-3.39106e-05
1.91278e-05
-5.64685e-06
-1.3481e-05
8.51901e-05
-5.4748e-05
-7.90578e-05
1.16827e-05
6.73751e-05
6.60601e-06
7.94125e-05
-0.00013469
0.000232077
-0.000183076
0.000132443
5.06333e-05
0.000641793
-0.000209424
2.72024e-05
-2.50285e-05
-2.17395e-06
0.000200872
-1.63159e-05
-0.000184556
0.000207976
0.000102209
-1.16529e-05
-3.51428e-05
4.67957e-05
-6.1298e-05
8.63239e-05
-2.50259e-05
-2.63462e-05
-0.000244156
3.99753e-05
0.00020418
-0.000212658
-3.14981e-05
-0.000328374
-2.35172e-05
9.19726e-05
3.59009e-05
-0.000127874
1.60637e-05
3.20193e-05
-4.8083e-05
0.000174691
-6.57248e-05
-4.02539e-05
-0.000280915
0.000321169
0.000363319
-0.000502916
-9.27444e-06
6.54446e-06
2.37274e-08
-5.62935e-07
1.90326e-05
-3.37089e-06
1.45463e-05
-1.29988e-05
-1.54751e-06
-1.69436e-05
0.000108916
-7.40433e-05
-5.30955e-05
0.000127139
1.37071e-05
-8.77503e-05
0.000560817
-0.000307953
-2.02119e-05
-0.000413081
0.000144596
0.000258496
-4.57871e-06
7.63277e-06
-1.41612e-05
6.52841e-06
-3.40272e-05
1.90723e-05
3.27952e-05
-1.98386e-05
-1.29566e-05
-9.48506e-05
-8.45991e-05
1.27347e-05
-0.000121153
-0.000888982
-3.00185e-05
0.000393778
-0.000314143
-7.96356e-05
-2.73891e-05
5.65158e-05
-2.91267e-05
0.000122453
-0.000244115
0.000178939
-0.000187616
8.67786e-06
0.000121032
-6.67052e-05
2.97394e-05
2.91587e-05
8.12294e-05
-5.37103e-05
-2.75191e-05
-0.000315638
0.000315638
-0.000104012
0.000118468
-2.20759e-05
1.02814e-05
0.000538545
-0.000580839
4.22936e-05
0.000766441
-0.000227896
1.20284e-05
4.24404e-06
-8.33023e-05
-0.000295871
7.55264e-06
0.000288318
-0.000100025
-3.44816e-05
4.70692e-06
2.2349e-05
-2.7056e-05
1.2321e-05
-7.61422e-06
0.000139653
-2.33395e-05
-0.000116313
4.63328e-05
-6.64588e-05
-0.000170008
-0.000125864
1.75922e-05
-5.78455e-05
-7.13414e-05
7.19071e-05
-2.39539e-05
1.70376e-05
-5.42762e-05
1.74794e-05
3.67968e-05
4.45209e-05
3.01781e-05
-3.95825e-05
-9.1966e-08
3.96745e-05
0.000630103
-0.000312484
8.00814e-05
-0.000156373
5.70297e-06
-7.22365e-05
6.65335e-05
5.60047e-07
-3.75715e-05
0.000213502
-0.000278823
6.53213e-05
0.000149515
0.000372504
-3.61938e-05
4.2703e-05
-6.50921e-06
6.94317e-05
-0.00030908
0.000239648
-0.000379332
0.000405607
-2.62748e-05
5.3389e-05
3.50881e-05
-8.84771e-05
4.50541e-05
8.33526e-06
-1.1759e-05
0.000226451
-0.000214692
-5.3736e-06
-1.18173e-05
1.80669e-05
4.90977e-05
0.000137272
-0.00020181
7.61681e-06
-3.74165e-06
-6.65291e-05
4.67222e-05
1.98069e-05
0.00110391
0.000462139
-6.33466e-05
-0.000398792
-1.81821e-05
1.65666e-05
-4.64811e-05
-5.25209e-05
-0.000254072
0.000190248
6.38236e-05
-0.000157647
0.000118719
0.000151352
-0.000187934
3.65814e-05
8.68819e-05
6.44704e-05
-5.62979e-05
4.57789e-05
1.0519e-05
-1.7093e-05
-3.92046e-05
-6.45442e-05
6.45442e-05
-1.2906e-05
-7.79649e-05
-9.77702e-07
-1.08065e-07
1.08577e-06
0.000265921
-0.000151913
-2.80869e-05
6.70522e-06
-0.000154332
9.30005e-06
0.000145032
5.22449e-05
-1.94598e-05
-0.000324355
0.000639202
-1.95292e-05
1.45645e-05
3.0757e-05
0.000107028
-2.05061e-06
8.01787e-05
-7.81281e-05
0.000119021
-6.39817e-05
-3.63736e-05
5.44406e-05
-3.61242e-06
-3.27613e-05
-4.26607e-05
0.000352771
-1.26534e-05
5.48254e-05
4.5927e-05
0.000416213
-0.000294509
0.000178411
0.000116098
2.12927e-05
6.34797e-05
-8.47724e-05
-0.000121622
0.000142914
-5.31927e-05
4.59863e-06
4.8594e-05
0.000103484
-6.60536e-05
-3.74299e-05
-1.81523e-05
0.000121636
-0.000450129
-0.00023636
0.000686489
-0.000161354
-0.000105927
0.00026728
-6.30558e-06
1.87033e-05
-1.23977e-05
-7.09503e-06
7.89562e-07
2.7851e-05
-4.8963e-05
2.1112e-05
-0.000110277
-0.000188666
7.23638e-05
-0.000172646
-0.000408191
1.95437e-05
3.0666e-07
6.40967e-06
8.38896e-06
-1.47986e-05
-0.000134362
0.000164877
-3.05146e-05
-9.70866e-05
8.08942e-06
0.000467914
-0.000596564
0.000128649
-7.88141e-05
0.000142213
0.0001075
-9.4389e-05
-1.31111e-05
7.6451e-05
3.10487e-05
2.49736e-05
-5.23628e-05
5.22265e-05
-1.57787e-05
0.000125052
3.70149e-05
-0.000162067
-5.45085e-05
-3.88677e-05
9.33762e-05
0.000234303
-0.000108971
-0.000125333
0.000135843
0.000695126
-0.000278778
-0.000416348
-0.000147566
-0.000150079
0.000297646
2.0411e-05
7.06962e-05
-7.56354e-05
-4.77093e-05
8.12663e-06
-0.000441212
7.99519e-05
0.00036126
0.000548185
-0.000688748
0.000140563
-0.00026796
0.000236401
3.15593e-05
2.32176e-05
-4.83143e-05
2.50967e-05
6.03405e-06
-0.0001487
0.000142665
-4.9129e-06
-3.7489e-06
8.6618e-06
-6.03267e-06
7.11033e-06
-1.07766e-06
-9.92468e-05
-0.00011012
-0.000200328
0.000150145
5.01833e-05
0.000257606
4.91902e-05
-0.000306796
9.10945e-06
-1.11943e-05
2.08489e-06
0.000113259
-0.000175683
6.24243e-05
-0.00016408
4.01126e-05
0.000123968
0.000188677
8.34743e-05
-9.48011e-06
-6.74697e-05
7.69498e-05
-3.52546e-05
9.65183e-06
1.26958e-05
5.12569e-05
-1.27818e-05
-9.65411e-06
1.70256e-06
-1.70256e-06
1.13803e-05
-0.000194456
-0.000111372
-0.00011032
0.000221693
0.000122343
6.74413e-05
1.37879e-05
-0.000108829
-6.84635e-05
0.000177292
-9.1728e-05
-1.7101e-05
-8.08924e-06
-2.17988e-06
-0.000206738
0.000174526
3.22118e-05
-0.000126303
0.000277073
-0.000150771
-3.56067e-05
4.7705e-05
-1.20983e-05
-6.93291e-05
0.000141086
-7.17569e-05
-0.000147514
-3.26665e-05
3.91545e-05
1.34173e-05
-5.25718e-05
0.000368715
-0.000245389
-0.000123326
-2.46766e-06
0.000232652
-1.03219e-05
8.08856e-06
0.000102039
0.000222624
4.22208e-06
-0.000150303
-0.000100179
0.000250482
-8.89312e-05
-0.000132567
1.12025e-05
-2.28552e-05
-0.000219436
0.00029062
-7.11845e-05
-2.02964e-05
-0.000114066
-2.22251e-05
3.26259e-05
-1.04008e-05
0.000435564
0.00023631
-0.000671874
-1.92342e-05
-4.72953e-05
6.79901e-05
-5.51103e-05
2.91324e-05
3.95353e-05
-6.86677e-05
4.81796e-05
-6.64832e-05
-9.40303e-06
-6.03719e-05
6.97749e-05
-0.000172987
-7.21842e-06
6.40309e-06
3.65027e-06
-1.00534e-05
0.000183287
0.000171123
-0.00035441
0.000571774
-0.000388487
-1.05953e-05
-1.89932e-05
-8.71045e-06
-3.23977e-05
1.7165e-05
-5.236e-05
5.18775e-06
5.90043e-06
-1.10882e-05
0.000191776
-5.45044e-05
0.000102987
-5.25825e-05
-4.57222e-05
-7.47065e-06
-8.70447e-06
-4.0824e-05
0.000144952
-0.000185984
4.10313e-05
-1.73736e-05
4.44197e-06
1.29316e-05
0.000255824
-0.000412504
0.00015668
-0.000110525
3.28549e-05
7.76704e-05
3.87162e-05
-0.000149241
5.33375e-05
-2.79365e-05
-2.5401e-05
3.25802e-05
3.9434e-05
-7.20142e-05
9.33422e-05
-6.07615e-05
0.00017696
8.06453e-05
-0.000275473
0.000123014
0.000471791
-3.87736e-06
2.07783e-05
1.5289e-05
-3.60673e-05
-0.000304718
9.79792e-05
1.25777e-05
-0.000167124
0.000154546
-0.000323682
0.000249595
7.40873e-05
-6.52356e-05
0.000108818
-4.35825e-05
-3.00307e-05
5.72238e-05
-5.60978e-06
-7.80414e-06
1.34139e-05
0.000218155
0.000255794
6.46e-05
-0.00012252
5.79201e-05
1.31247e-05
-0.000136962
-6.12008e-05
7.13249e-05
0.000158523
3.05183e-05
-2.4029e-05
7.36204e-05
-4.95914e-05
-3.88055e-06
-0.000127153
0.000131033
8.09665e-06
-6.39464e-06
-3.02176e-05
-1.07468e-06
3.12923e-05
-9.20969e-05
4.28745e-05
4.92224e-05
-0.000319844
7.74852e-05
0.000242359
-0.000341322
0.000551296
-0.000209974
0.000231933
0.000260445
-8.29709e-06
-0.00028901
0.000297307
3.00687e-05
-0.000306376
-0.000308835
0.000783094
-0.000320631
0.000258369
6.22622e-05
-8.28461e-05
-1.25136e-05
-1.57734e-05
-2.04206e-05
0.000484173
-0.000129151
-0.000355022
0.00054209
-5.79161e-05
9.20822e-06
-8.69065e-06
9.91877e-05
-0.000135961
3.67729e-05
-0.00016551
8.04999e-05
8.501e-05
-6.18033e-05
-0.000103706
8.06274e-06
-2.87863e-05
3.80303e-05
0.000101724
0.000111778
-1.02864e-06
2.45788e-05
-2.35501e-05
-8.00563e-05
3.07059e-05
4.93504e-05
-4.36443e-05
4.49375e-05
-1.29322e-06
2.86281e-05
-0.000108684
-7.19121e-05
0.000107682
-8.67152e-06
-6.19647e-05
7.06362e-05
7.25696e-05
0.000106369
9.18145e-05
-7.57506e-05
0.00105328
-0.000353742
0.000711745
0.00034153
-0.000181521
-8.64395e-05
-2.97393e-05
-0.000112407
0.000142147
8.29092e-05
-1.96406e-05
-6.32686e-05
2.60775e-05
-0.000187431
3.57473e-06
-3.9182e-05
3.70343e-05
4.18646e-06
-4.12207e-05
-1.62792e-05
7.97802e-05
-0.000134011
5.73225e-05
7.66886e-05
-0.000128092
-5.91879e-06
0.000235808
0.000142609
-0.00011927
4.16027e-05
7.76671e-05
-5.41922e-05
-0.000204847
0.00025904
-5.66282e-05
8.609e-05
-2.94618e-05
-9.9873e-05
-9.17482e-05
0.000191621
-0.000170693
0.000147167
2.35262e-05
-1.54263e-05
1.52888e-06
-2.0953e-05
1.66954e-06
0.000193839
6.30844e-05
-0.000256924
-0.00020512
0.000498113
-0.000292993
-2.35306e-06
-3.67946e-06
5.21374e-05
-2.89196e-05
-0.00024506
0.000390233
-0.000145174
-0.000101361
9.19581e-05
-7.04655e-05
-0.000105308
0.000175773
5.0544e-06
-9.9672e-06
-0.000169608
-0.000280523
-0.000135943
9.32911e-05
4.26515e-05
5.93506e-05
-2.07287e-05
-3.8622e-05
-0.000135392
0.000100878
0.000238019
-9.32038e-06
0.000152236
0.000128933
-0.000281169
1.07498e-05
-3.29752e-05
-4.40287e-06
-3.03999e-05
3.48028e-05
-2.78858e-05
2.34833e-05
-0.000107611
9.5161e-05
1.245e-05
-1.36609e-05
3.01433e-06
1.06465e-05
0.000216141
-0.000182243
-3.38979e-05
1.28313e-05
-1.05221e-05
-4.05531e-05
0.000109208
-6.86552e-05
-0.000100119
-0.000144941
-4.19889e-06
-4.51976e-05
-0.000350644
0.000144013
0.000206631
2.57429e-05
9.93093e-05
-5.10911e-05
5.64962e-05
0.000121214
0.000167269
-0.000288483
6.29501e-05
-0.00026305
4.62079e-05
-5.4147e-05
7.93908e-06
-1.97753e-05
5.04015e-06
7.27656e-07
-5.76781e-06
2.18275e-05
-3.12268e-06
-1.87048e-05
-0.000123999
0.000239405
-9.73491e-05
-2.66494e-05
-0.00018649
-9.38463e-06
1.71641e-06
-0.000442929
-0.000100748
0.000102585
-1.83638e-06
2.16268e-05
-1.52245e-05
0.000257163
-0.000257163
-3.66972e-05
4.82228e-05
-1.15257e-05
-0.000141024
-4.03456e-05
0.00018137
9.13208e-05
-5.35087e-05
3.19977e-05
0.000244546
-0.000276544
7.64488e-05
5.83248e-05
-0.000204774
0.00016062
4.41543e-05
-3.35131e-05
2.0971e-05
1.25421e-05
0.000311079
-7.89465e-05
-0.000232133
-1.97542e-05
2.03792e-05
3.66876e-05
6.01541e-06
9.55392e-05
-5.28084e-05
0.000288122
-0.000299881
9.27559e-06
-0.000117036
-4.49529e-05
-3.76135e-05
0.000792529
-0.000208169
0.000389207
0.000232622
5.79423e-05
0.000588944
-0.000356322
-0.000113559
0.000212747
-1.88344e-05
4.40373e-05
-2.52029e-05
-9.48324e-05
-9.91723e-06
1.48816e-05
-0.000100312
2.60581e-05
-1.11769e-05
-0.000237158
-4.65349e-05
7.64942e-05
-2.99593e-05
-0.000148941
0.000102406
0.000361141
-0.000112334
-0.000248807
5.26878e-06
-3.46838e-05
-1.27485e-05
-2.79605e-05
-0.000262258
0.000619092
-1.33291e-05
-4.20023e-05
5.53314e-05
7.03701e-05
-4.49974e-05
-2.4629e-06
9.58048e-05
6.40931e-05
-0.000122765
5.86721e-05
-4.75278e-05
3.88562e-05
-2.12527e-05
2.49023e-05
1.49015e-05
-3.82767e-05
2.33752e-05
-1.43252e-05
2.92269e-05
0.000134093
0.000180798
3.1257e-06
-9.83895e-05
9.52638e-05
-6.49709e-05
-7.88635e-06
7.28572e-05
-6.90556e-05
-2.70329e-05
9.60885e-05
0.000188715
-2.4462e-05
-0.000164253
-4.59715e-05
-0.000108361
2.05718e-05
-8.2839e-06
5.38528e-06
0.000236627
-0.000242012
0.00022616
-0.000220774
-5.06923e-05
9.13684e-05
-4.06761e-05
0.000173958
-0.000166405
-0.000132405
-8.1519e-05
0.000213924
6.7604e-05
-5.29945e-05
-1.46095e-05
-0.000666311
-4.36785e-05
0.000709989
-0.000178265
-0.000488045
0.000206751
-0.000102738
-0.000104013
-0.000122619
0.000558183
4.04777e-05
2.8196e-05