/*--------------------------------*- C++ -*----------------------------------*\
  =========                 |
  \\      /  F ield         | OpenFOAM: The Open Source CFD Toolbox
   \\    /   O peration     | Website:  https://openfoam.org
    \\  /    A nd           | Version:  7
     \\/     M anipulation  |
\*---------------------------------------------------------------------------*/
FoamFile
{
    version     2.0;
    format      ascii;
    class       volVectorField;
    location    "12";
    object      U;
}
// * * * * * * * * * * * * * * * * * * * * * * * * * * * * * * * * * * * * * //

dimensions      [0 1 -1 0 0 0 0];

internalField   nonuniform List<vector> 
13182
(
(-1.18181 -48.9912 -4.43926e-15)
(326.103 106.354 0)
(274.729 -234.918 -1.47821e-14)
(31.9868 -45.3387 3.47624e-14)
(49.8998 187.213 -1.65797e-15)
(245.233 -30.5334 -1.70667e-14)
(224.122 -5.80905 -3.31713e-14)
(110.922 10.5319 3.87941e-14)
(39.6151 -21.4285 1.99784e-14)
(830.206 -20.4666 -1.63799e-14)
(538.011 -111.135 0)
(-87.9778 35.326 1.3888e-16)
(-93.2774 -53.6312 1.99491e-15)
(101.032 -53.2603 3.73022e-14)
(123.091 -17.4288 0)
(6.37699 8.00695 -1.68519e-14)
(23.2998 -46.9014 9.63436e-15)
(0.825216 15.1952 0)
(271.253 31.8789 3.33229e-14)
(341.238 66.1044 0)
(209.9 -252.354 1.45751e-14)
(67.0929 4.29343 0)
(-87.2079 -51.7076 -1.06284e-15)
(364.382 -110.31 -6.05239e-14)
(-29.5518 51.3812 -3.69158e-15)
(127.853 119.133 0)
(40.0268 31.2792 0)
(231.716 -118.059 0)
(379.935 -30.7771 -5.5601e-15)
(1.66762 6.56295 6.11094e-14)
(3.13625 11.1249 0)
(49.3531 -15.1858 -3.64786e-14)
(-108.671 5.8348 8.09588e-15)
(312.571 126.937 -7.80159e-15)
(252.647 312.046 2.29745e-14)
(40.304 145.609 0)
(-6.10267 -10.79 0)
(348.435 -123.743 2.48495e-14)
(234.892 -97.8148 0)
(96.6053 -60.0782 1.8119e-14)
(102.603 392.533 5.36464e-16)
(798.642 -357.951 -3.91994e-15)
(442.166 41.9266 -1.37403e-14)
(971.377 232.099 4.58078e-15)
(150.577 67.6277 2.19234e-15)
(35.6224 422.682 0)
(11.7375 -72.11 -4.19035e-14)
(877.172 -207.257 0)
(515.778 -139.356 -1.14484e-14)
(21.4969 -40.1166 0)
(74.7133 -156.473 0)
(181.08 -231.513 0)
(-34.3253 -60.6886 -9.02035e-15)
(5.29412 -23.229 -1.45379e-14)
(-74.4275 -78.2283 0)
(-52.0562 -5.5653 0)
(-75.356 25.9119 0)
(17.5675 -51.8906 1.47344e-14)
(-148.576 -82.4363 1.71929e-14)
(6.98317 10.7291 0)
(0.563161 -4.01461 0)
(-4.49077 -6.30524 -4.02683e-14)
(7.32102 -38.3056 1.65088e-14)
(-31.0298 -192.577 -2.86501e-14)
(169.1 70.6564 -3.19728e-14)
(60.3434 101.622 5.88782e-14)
(-13.0433 -98.9093 1.63003e-14)
(-59.1127 97.7136 -7.82653e-15)
(165.836 15.2319 3.28758e-15)
(-212.685 49.3304 1.6185e-14)
(102.727 -244.209 7.65782e-16)
(22.9507 -7.70022 9.94344e-15)
(40.7671 31.9005 -2.06208e-14)
(58.7055 292.902 0)
(375.018 207.295 -5.91095e-15)
(7.72054 -20.858 -4.03044e-14)
(90.1648 23.3262 0)
(70.1545 -15.8496 -1.09371e-14)
(16.967 -45.223 -4.09302e-14)
(92.7661 -98.8686 7.07535e-14)
(14.3082 -10.824 1.00034e-14)
(-3.21619 180.496 -1.63989e-14)
(229.014 11.9273 -9.35046e-15)
(251.268 -72.2477 8.4035e-15)
(409.734 -59.4504 7.10364e-15)
(229.256 118.578 0)
(342.841 -38.1154 0)
(-136.706 -94.6756 1.70737e-14)
(187.236 57.8191 0)
(58.6951 50.3769 1.47778e-14)
(15.9182 -143.776 0)
(-2.1646 -7.23735 2.16716e-14)
(-38.4082 79.5656 -8.50825e-15)
(-489.866 -259.294 -1.92948e-14)
(0.0485364 42.6001 3.67792e-14)
(63.0561 -24.5651 0)
(143.453 -218.599 -1.29537e-14)
(-147.285 -38.868 -9.09407e-15)
(30.6474 21.4765 0)
(38.3162 14.1425 0)
(192.003 13.3617 9.6887e-15)
(661.574 -152.606 0)
(256.087 -7.97735 0)
(91.3111 2.87539 3.31139e-14)
(132.674 -6.16244 1.91195e-14)
(-140.551 51.1749 1.47737e-14)
(534.521 42.9817 7.32523e-15)
(795.459 -144.524 6.08096e-15)
(14.0409 -10.6192 5.04747e-14)
(50.5559 74.8868 0)
(152.711 30.0894 -4.54544e-14)
(606.465 93.3235 -8.85978e-15)
(855.531 -12.8097 2.12297e-14)
(137.567 -41.1647 1.80205e-16)
(197.397 -105.19 -1.35629e-14)
(62.147 -67.3452 2.15579e-14)
(22.1557 -6.2782 -2.51887e-14)
(74.9509 -426.616 -4.62047e-15)
(-19.3792 -186.292 -2.39834e-14)
(-28.0572 -162.161 -1.16246e-16)
(-87.5134 -84.1888 0)
(680.651 10.8002 1.70664e-14)
(46.2789 -5.75492 0)
(208.431 7.7119 3.28549e-14)
(217.235 49.2186 1.39354e-14)
(229.138 -7.06839 0)
(115.161 -29.812 1.62332e-14)
(14.6307 -25.7942 -9.21276e-15)
(201.36 -7.33526 3.77053e-14)
(-192.799 -155.615 0)
(384.947 -120.534 -5.39214e-15)
(302.337 54.5456 0)
(98.5349 -37.8214 0)
(542.564 -11.2993 1.07426e-14)
(140.619 -85.2834 5.03893e-14)
(34.4184 -15.9105 -3.45845e-14)
(92.6116 -13.398 -2.68234e-15)
(55.3556 20.0855 8.31306e-15)
(212.988 -20.6967 0)
(82.9629 11.9871 -6.29677e-14)
(159.414 297.014 -2.75936e-14)
(677.584 409.477 0)
(411.663 -189.973 -6.96246e-15)
(130.39 -69.9806 0)
(280.759 -165.992 -1.52877e-14)
(119.843 -9.64243 6.55255e-17)
(155.772 40.1045 0)
(-118.893 -63.4792 0)
(-3.39391 -5.07529 2.00952e-14)
(449.046 -210.452 0)
(-211.028 -242.148 3.36181e-15)
(104.207 90.1287 -1.31818e-14)
(-69.9737 78.2657 0)
(172.699 29.6603 -1.10026e-14)
(-86.2798 -58.3435 -2.41077e-14)
(-138.885 -74.226 -2.84053e-14)
(224.654 -64.2762 0)
(-126.655 495.242 1.27331e-17)
(414.567 192.986 3.65665e-15)
(199.009 17.7406 0)
(201.018 5.85913 1.51689e-14)
(294.734 -77.3415 2.46556e-14)
(218.403 -194.3 -1.10728e-14)
(-79.1262 -0.763145 3.85877e-14)
(124.653 -44.3913 7.18745e-17)
(-221.468 18.49 -7.85158e-17)
(41.0979 -5.73183 -2.16071e-14)
(32.4448 215.321 3.09167e-14)
(14.7766 96.4177 -7.0233e-15)
(209.234 -95.7511 0)
(177.903 -38.5825 0)
(207.183 -110.802 1.82002e-14)
(53.8272 -90.9629 0)
(143.539 115.502 1.53614e-15)
(-99.6774 171.312 -1.14966e-14)
(-82.0849 -61.6958 -3.36154e-14)
(187.138 -180.514 0)
(358.15 -53.6151 1.14453e-14)
(90.5949 -42.2937 0)
(165.885 41.4943 0)
(6.87858 54.3032 1.485e-14)
(486.88 -129.33 1.15396e-14)
(2.96153 -5.75621 0)
(213.655 -8.39759 -5.2096e-14)
(-50.2459 10.6334 7.90711e-15)
(326.633 124.79 1.17925e-14)
(498.213 -89.3131 -2.44407e-14)
(17.6718 -16.1221 3.69887e-14)
(-132.216 32.2233 -2.09371e-14)
(-74.4093 -12.4026 -1.54637e-14)
(-139.807 4.38607 9.9205e-15)
(4.91101 -12.9079 1.49311e-18)
(-41.0703 -24.7618 9.77106e-15)
(178.086 -46.3626 0)
(15.8386 -6.8877 -4.22311e-14)
(7.55169 -118.932 -1.24127e-14)
(223.295 -28.0302 -2.41861e-14)
(-178.639 -82.2203 -7.98491e-15)
(-54.0663 -52.1798 -2.853e-14)
(55.3033 58.7317 -7.56918e-15)
(1.57961 -98.7854 3.56068e-14)
(77.0084 -66.9846 -5.77218e-14)
(130.307 -260.109 -1.96239e-15)
(12.5694 -18.0055 0)
(124.993 -9.2558 1.28005e-16)
(-336.761 206.487 -5.51431e-15)
(363.516 256.827 7.46547e-15)
(693.319 -138.045 0)
(7.49026 -9.85535 -2.50821e-14)
(159.195 250.738 8.88156e-15)
(224.57 -51.46 0)
(709.637 40.8318 0)
(63.5059 -48.1717 3.56543e-14)
(-102.662 -21.6868 -4.3114e-14)
(221.486 53.7942 0)
(30.4204 -64.1984 0)
(59.7184 -120.482 -2.90263e-14)
(5.75201 -9.71863 4.33017e-14)
(-30.1826 -27.11 2.91943e-14)
(66.911 163.346 1.43043e-15)
(56.8796 153.904 0)
(112.826 56.0133 0)
(198.813 190.705 -4.49054e-15)
(267.34 -74.3709 -9.42371e-15)
(358.004 -187.223 -7.29359e-15)
(0.713328 -17.2115 4.39402e-14)
(11.3636 -29.3324 -1.8316e-14)
(-2.19451 19.5976 0)
(-1.10866 -5.11262 -1.98731e-14)
(8.42623 -9.4933 7.10355e-14)
(3.53781 -24.4597 -1.95924e-14)
(119.739 60.8221 1.85851e-14)
(146.432 12.7764 -1.82977e-14)
(90.3357 -54.9371 0)
(50.9884 25.7333 4.68315e-15)
(26.3775 -41.0271 0)
(454.531 -131.219 9.84879e-17)
(142.788 -20.8208 -3.62191e-14)
(176.095 -19.8346 0)
(-91.1528 72.6801 1.41687e-16)
(425.633 126.822 -8.56356e-15)
(341.967 -91.2993 4.39249e-15)
(15.5245 -63.857 1.91467e-14)
(-65.0203 -10.8093 -1.588e-14)
(-58.3445 -49.8435 5.19564e-14)
(-2.27873 63.6664 -1.73344e-14)
(-100.972 -166.08 -3.04012e-14)
(120.217 -63.9702 5.75499e-14)
(-1.45972 -31.4719 2.10502e-15)
(247.75 -2.20867 -1.46366e-14)
(-90.3185 -47.1981 -8.31915e-15)
(130.744 -175.884 1.52288e-14)
(110.966 5.47705 -4.20063e-14)
(146.026 61.4976 1.29595e-14)
(256.178 469.073 5.99572e-15)
(16.4757 -34.7263 1.78108e-14)
(535.972 84.0091 5.41055e-15)
(1094.02 64.8592 3.82931e-15)
(834.639 -58.5685 8.10942e-16)
(384.479 55.4404 5.22374e-15)
(52.2995 132.309 0)
(31.9973 -26.4114 -5.39135e-14)
(36.0522 -47.0562 -1.93459e-14)
(0.107741 1.30133 0)
(47.7098 111.833 1.71555e-14)
(440.712 -1.39855 -1.2395e-14)
(-246.166 -284.366 -8.12516e-15)
(171.745 -21.3013 0)
(-83.5222 27.6022 3.0583e-14)
(49.769 11.0332 2.42035e-15)
(47.708 -23.8321 3.7623e-14)
(79.079 -46.0221 4.06008e-14)
(54.1078 -45.5264 -3.65607e-14)
(56.8311 19.6194 0)
(15.3655 0.136074 0)
(43.305 -218.215 2.1383e-14)
(84.4897 -19.375 -3.8512e-14)
(59.8034 -19.3444 5.41275e-14)
(-36.2295 -41.5968 0)
(299.145 44.8626 0)
(20.7402 -15.0543 4.09379e-14)
(-305.975 -127.243 -1.19237e-14)
(-15.2953 -48.1655 0)
(47.6971 -72.9638 -2.3753e-14)
(-49.6722 -70.1758 4.37174e-15)
(50.3851 211.102 -3.10098e-15)
(101.003 -190.645 -2.22194e-14)
(19.8011 -0.977141 3.86603e-14)
(473.414 378.187 -8.1869e-15)
(-44.0058 10.519 2.18306e-14)
(46.1894 -85.9444 -1.0577e-14)
(777.191 104.791 8.70506e-15)
(96.3536 59.4295 -5.41811e-15)
(162.097 79.9676 8.10641e-15)
(49.3845 47.0677 -9.56821e-15)
(-6.00363 -31.2462 -1.48604e-14)
(21.9816 -17.9937 0)
(19.6032 -15.5629 0)
(53.333 -45.4629 3.10527e-14)
(55.0816 -38.0771 1.04732e-14)
(-159.377 94.2695 -1.32811e-14)
(-51.5429 -191.972 -4.21318e-14)
(54.079 -89.3286 -1.8292e-14)
(24.3321 -93.1424 -9.64308e-15)
(583.064 -347.567 0)
(-697.133 -46.975 1.08843e-14)
(41.3363 -23.2616 -3.07419e-14)
(102.974 35.1752 -1.62758e-14)
(27.2234 -65.9409 -4.13965e-14)
(-137.587 -38.4927 6.4991e-17)
(-33.9281 -65.7724 0)
(-18.5902 -27.8464 1.84538e-14)
(75.0255 -56.2125 1.10576e-14)
(-13.9537 24.2096 -3.90928e-14)
(2.9309 -9.91033 0)
(29.8553 -54.9238 4.45571e-14)
(17.3514 -25.7442 -3.78695e-14)
(27.5008 19.7879 0)
(4.40128 -12.0707 -7.26207e-14)
(208.464 163.568 -1.10784e-14)
(-241.269 174.965 1.71986e-14)
(-208.108 42.756 -6.62415e-15)
(34.2442 31.0649 -3.73945e-14)
(9.41916 -41.6739 1.83966e-14)
(86.464 13.4797 -3.02433e-14)
(43.7221 -33.5068 3.85565e-14)
(122.151 167.719 -7.08148e-17)
(-113.056 36.2826 0)
(139.003 -266.723 0)
(172.606 119.272 1.2262e-14)
(191.307 40.5783 0)
(178.802 60.8821 0)
(67.0897 -74.0506 0)
(259.897 -47.4087 2.00983e-14)
(250.169 -21.8759 0)
(-40.0515 -101.347 -2.07814e-15)
(30.277 102 3.14271e-14)
(42.2155 -5.79164 1.70221e-14)
(-17.6351 -9.18484 0)
(715.887 -82.1539 -9.01759e-15)
(562.318 -322.815 -2.64222e-15)
(47.2364 -55.6388 0)
(7.53828 -12.5292 5.22497e-15)
(184.641 362.351 0)
(333.451 -34.7064 -1.60814e-14)
(45.6068 -8.14584 0)
(-16.602 -36.3897 -3.22857e-14)
(35.1943 -43.5096 0)
(6.11939 -89.5142 3.57606e-14)
(420.139 9.0811 3.09216e-14)
(350.709 38.9625 -3.11782e-14)
(29.5547 -10.2951 5.79804e-14)
(-99.6693 -114.885 -5.92095e-15)
(33.4217 -17.9324 -3.48604e-14)
(75.7885 18.955 4.99462e-14)
(-8.65149 -4.88456 1.70077e-14)
(13.0875 -67.8755 2.8419e-14)
(45.3557 -95.5386 2.95506e-14)
(3.0516 -39.6074 9.89561e-15)
(4.23987 -31.5986 -3.65874e-14)
(-56.3751 15.9604 -4.85693e-15)
(16.4743 -14.6612 0)
(222.038 -57.7804 6.04055e-15)
(79.2764 -6.47896 -1.02077e-14)
(154.64 376.374 1.53823e-14)
(185.397 28.0689 0)
(20.495 17.9609 -2.55181e-14)
(201.449 39.5583 -3.97629e-14)
(107.478 7.38476 -2.05422e-18)
(341.967 143.653 0)
(-5.02038 -13.5903 1.96271e-14)
(25.6878 32.2152 -1.9177e-14)
(132.347 -81.5317 4.84047e-15)
(-43.2624 25.2439 6.44767e-15)
(-52.3287 -62.6966 4.48298e-14)
(-7.24829 19.8407 -1.48628e-14)
(-150.09 39.4972 2.7511e-14)
(165.182 70.0034 7.77276e-15)
(880.084 306.077 7.24816e-16)
(187.49 183.952 -4.16322e-15)
(-67.2824 -220.402 3.39859e-14)
(184.821 104.926 1.89232e-14)
(12.1225 -19.6732 3.8072e-14)
(131.417 10.2659 1.78813e-14)
(-60.7847 103.756 1.11683e-14)
(273.129 -147.397 4.31511e-16)
(481.334 58.2482 2.26592e-14)
(57.6056 -44.9836 9.79111e-15)
(75.2605 389.764 -8.03389e-16)
(-254.056 39.7231 -2.45823e-16)
(-19.9484 96.9054 0)
(9.7726 -16.8399 2.58845e-15)
(24.6811 -25.8309 -3.9503e-14)
(113.169 114.798 1.57422e-14)
(273.156 -25.3115 1.40102e-14)
(-7.03509 -49.4704 0)
(1.61049 -11.1962 0)
(95.0775 6.88209 -9.02679e-15)
(85.5363 -222.236 3.20818e-14)
(111.371 4.53704 -1.03997e-14)
(564.877 -201.763 0)
(404.635 -191.689 -9.31879e-15)
(-46.5737 -34.5133 7.90235e-15)
(7.87515 -11.1224 -8.14299e-15)
(40.8498 18.5949 -2.72201e-14)
(112.113 -46.906 2.29718e-14)
(120.499 -83.1425 -1.71212e-14)
(55.825 -10.8623 3.94249e-14)
(5.22047 -33.0638 0)
(90.5499 -84.4258 -2.77182e-14)
(-52.4597 173.182 -3.28683e-14)
(-82.9444 120.233 0)
(221.217 140.345 2.29621e-15)
(128.409 62.0908 -7.35569e-15)
(1.56542 -13.8096 0)
(-14.9512 -60.7042 6.7052e-15)
(-25.7839 -26.689 0)
(840.462 435.239 -7.47085e-16)
(225.009 -24.7383 0)
(28.7619 -127.982 0)
(49.1108 89.9253 0)
(177.196 15.8614 -7.45347e-14)
(14.9148 3.89741 4.9066e-15)
(13.9574 -4.81002 0)
(0.816275 8.11143 0)
(504.372 346.137 1.67154e-14)
(58.0197 -92.1729 1.9122e-14)
(265.088 46.3579 1.47568e-14)
(19.1309 32.3911 0)
(20.2243 14.4502 -1.80364e-14)
(220.964 223.184 -2.04337e-15)
(301.77 65.4939 3.21932e-14)
(129.308 81.126 4.11861e-15)
(63.7766 -39.1241 3.84541e-14)
(192.479 -15.0702 2.03185e-14)
(312.996 -136.218 0)
(-58.9642 -10.6955 1.68407e-14)
(7.78956 -24.1993 6.42497e-15)
(-93.8011 -146.281 1.59926e-14)
(190.592 121.152 0)
(-99.8484 -92.5121 -8.08516e-15)
(155.726 36.4257 -2.45599e-14)
(290.325 0.140975 0)
(95.8348 34.4713 -1.7826e-14)
(-41.4773 -95.0294 4.40886e-14)
(-6.4591 -35.5898 0)
(444.327 -27.1468 0)
(-18.2346 -5.75713 0)
(-130.557 207.771 0)
(16.7683 -2.63423 1.97284e-14)
(20.712 -25.0631 -3.58115e-14)
(62.5674 168.323 3.47281e-14)
(-53.2329 -85.3725 1.09307e-14)
(-17.6297 -5.99195 1.04006e-14)
(264.765 -319.824 5.08383e-15)
(52.5943 -92.7579 3.18842e-14)
(-5.07608 -0.62589 0)
(9.22268 -12.4917 0)
(-14.5634 -8.3184 0)
(42.7389 -64.336 5.01446e-14)
(35.5263 -9.04452 -1.85215e-14)
(-42.5042 -25.3999 4.45515e-15)
(-400.671 -403.196 3.58313e-16)
(26.9033 -6.35353 3.12192e-14)
(55.1267 -45.9896 0)
(15.9886 -20.2868 4.32071e-14)
(6.29511 47.4193 -1.34276e-14)
(32.9444 -82.5127 -6.78813e-15)
(13.0521 -24.9159 3.76551e-17)
(189.905 -0.859693 0)
(141.278 -46.8587 -3.04352e-14)
(358.546 -612.848 0)
(36.7504 -13.821 -3.91782e-14)
(73.9006 -16.8445 0)
(408.268 -5.68612 -7.43445e-15)
(262.97 245.378 1.29642e-14)
(-4.6532 -5.10218 -1.0525e-14)
(98.2096 -288.363 -2.4272e-15)
(-6.65602 -0.777678 1.03783e-14)
(80.6873 43.1023 -3.88475e-14)
(66.7313 -7.13649 0)
(24.5319 -9.01107 -3.65765e-14)
(187.505 -120.415 0)
(66.0539 -5.28331 0)
(79.9531 85.7336 -2.97938e-15)
(260.547 311.37 -9.12802e-15)
(-83.1994 -79.3859 -4.61597e-14)
(342.541 -20.0007 3.09107e-14)
(85.9664 -57.1992 0)
(682.376 -485.257 3.86727e-15)
(40.8981 -57.5987 0)
(116.131 -48.7195 1.49219e-14)
(-11.6757 -22.6789 -1.91648e-14)
(-364.135 174.846 1.34134e-14)
(7.61182 4.37204 0)
(-603.384 184.905 1.10986e-14)
(162.987 -130.439 -2.449e-14)
(706.43 -199.51 -7.52675e-16)
(129.142 51.8621 0)
(0.307125 23.1319 -2.87831e-14)
(19.8197 -26.4238 0)
(-7.66743 -28.6845 2.03791e-14)
(21.9401 -12.3984 1.01237e-14)
(549.133 -13.2135 0)
(480.046 105.899 -9.80641e-15)
(39.0503 11.6514 -4.51532e-15)
(10.2491 -63.4682 0)
(50.7603 16.6298 0)
(244.998 -112.592 -3.78137e-14)
(318.261 104.73 1.2315e-14)
(137.439 -83.6718 1.24318e-14)
(-477.767 -70.7894 0)
(264.388 5.22501 0)
(161.866 -246.904 3.10417e-14)
(325.661 89.7331 2.93402e-14)
(158.521 9.22529 -1.49575e-16)
(-44.1829 -39.0943 2.23088e-14)
(23.9891 -32.1553 0)
(-170.814 76.2425 -1.81892e-14)
(-126.071 -538.084 -9.63316e-15)
(14.843 -4.86355 -3.65187e-14)
(-1.67171 -12.7522 0)
(14.9765 52.7473 -9.28786e-15)
(200.212 312.788 5.64167e-15)
(208.667 -147.284 -1.24195e-14)
(232.722 13.3596 0)
(28.5591 4.58167 1.70648e-14)
(-129.615 -116.494 0)
(7.6249 -20.4534 0)
(146.301 103.16 -1.49679e-14)
(-83.5248 27.8274 1.49552e-14)
(54.4057 -55.5149 -2.97078e-14)
(191.21 -45.8518 1.94271e-14)
(-94.8907 -80.6464 1.71017e-14)
(642.734 22.5724 -1.76066e-15)
(129.109 -11.0673 -1.74611e-14)
(13.7272 37.1322 1.80496e-14)
(-186.596 -376.403 -1.80717e-14)
(202.078 50.8988 0)
(108.126 59.6007 0)
(244.009 -13.2015 0)
(80.2199 47.8712 -1.86432e-14)
(22.3981 -18.1725 -2.13657e-14)
(220.595 -55.0246 -6.21662e-15)
(-62.6726 -32.515 -3.86941e-14)
(76.6423 -73.2294 -6.98325e-15)
(363.133 78.48 1.4334e-14)
(-27.2318 -19.3469 -3.58166e-14)
(563.126 172.229 2.23065e-14)
(16.5457 -0.891875 -3.72235e-14)
(4.8194 -2.16668 -9.61509e-15)
(97.7209 28.6398 1.90258e-14)
(145.625 -10.3566 0)
(-30.9689 22.1032 -2.8593e-14)
(38.8196 62.1243 -1.02429e-14)
(21.8074 -38.6241 -6.45015e-16)
(-5.49088 -2.5835 9.85156e-15)
(-33.1683 -83.5626 8.94941e-15)
(-59.1861 -26.3086 -4.70154e-14)
(110.829 14.3855 4.90953e-14)
(641.953 97.9861 -2.20684e-14)
(6.82335 11.0133 0)
(45.4435 11.7272 -4.67053e-14)
(75.8122 48.5988 -1.64902e-14)
(21.9176 -42.4467 3.69981e-14)
(152.641 -61.6059 3.6997e-14)
(48.0563 54.2871 -1.56262e-14)
(173.456 -203.837 4.9446e-15)
(114.672 -281.612 1.68971e-14)
(52.0077 -22.3309 0)
(117.387 -90.5007 -4.02914e-15)
(350.771 168.726 1.77623e-14)
(404.846 70.0576 -2.01794e-14)
(57.3277 67.211 -1.68914e-14)
(-8.11446 -19.4301 3.64687e-14)
(32.2236 -14.2291 -3.96255e-14)
(10.8955 -100.443 0)
(65.4406 -61.2097 1.77601e-14)
(-92.4342 -48.8619 -2.17241e-14)
(302.596 -202.427 1.28491e-14)
(74.8545 -73.9437 3.24642e-14)
(516.981 -426.996 0)
(-9.19297 -27.3454 5.57371e-14)
(-7.99376 -94.6239 -1.01756e-16)
(107.4 -130.939 -1.82807e-14)
(254.793 56.0006 -8.92877e-15)
(24.1847 -32.7676 0)
(-6.87938 4.59698 3.65219e-14)
(5.48133 64.9878 -3.94744e-14)
(228.231 136.167 -2.42583e-14)
(-10.5091 120.346 -2.35665e-14)
(62.5845 252.124 0)
(67.8365 -82.3423 3.3561e-14)
(18.8179 71.9914 -3.20919e-14)
(159.232 51.4346 -5.09067e-14)
(308.201 -218.833 -1.97192e-14)
(761.733 33.8511 -1.37564e-14)
(-1.29964 1.72332 0)
(6.3736 1.37542 2.64203e-14)
(15.5635 -21.4939 4.57628e-14)
(45.758 -20.3669 4.05709e-14)
(28.2139 -33.5828 0)
(99.5514 40.8135 0)
(51.1591 -2.76392 -2.91979e-14)
(249.704 -131.946 4.90914e-15)
(412.856 -47.928 9.14376e-17)
(463.423 131.437 -4.7523e-15)
(396.989 -26.7556 -4.12045e-14)
(5.47364 -6.01302 -1.99498e-14)
(8.45339 -25.367 0)
(23.8351 -2.64001 -4.21124e-14)
(218.843 80.4043 -9.82365e-15)
(-64.4182 32.1023 1.73899e-14)
(558.257 -29.549 -1.45376e-14)
(412.295 204.025 1.20306e-14)
(-205.037 -323.499 2.31514e-15)
(-77.252 -289.048 -2.09676e-14)
(-130.999 30.3938 1.54286e-14)
(-197.65 94.2346 6.89922e-15)
(-24.6783 -89.881 8.80679e-15)
(23.3828 -48.8191 -3.91421e-14)
(284.842 -297.771 0)
(109.478 -95.5766 0)
(2.81876 -1.77686 -2.03441e-14)
(628.385 -461.638 1.60201e-14)
(406.363 -384.571 -2.46304e-14)
(13.1693 -16.7687 -3.78263e-14)
(88.3068 7.83862 -3.96969e-14)
(-385.473 254.317 0)
(6.8301 -69.5998 -2.23657e-15)
(8.82254 -11.3699 1.03635e-14)
(11.1387 -23.6878 0)
(3.0889 -72.759 0)
(134.377 -192.855 3.8428e-15)
(27.2867 -19.984 0)
(105.932 -342.107 2.06576e-14)
(65.5143 -39.186 -1.10353e-14)
(27.2502 14.4272 -4.5374e-15)
(-4.38413 -17.7736 1.57166e-14)
(10.0478 -14.3343 -1.08031e-16)
(-48.524 -36.9978 1.97603e-14)
(255.282 348 0)
(60.0015 104.059 -3.36014e-14)
(-21.6996 -95.8902 3.60907e-14)
(51.5435 -3.49596 -2.8986e-17)
(203.443 114.096 -3.2775e-15)
(293.037 -105.152 0)
(36.062 -9.14655 -1.04636e-14)
(-14.2339 -160.981 -1.26525e-14)
(-10.7261 111.553 3.40861e-15)
(90.4665 23.9577 -2.07077e-14)
(29.0886 15.0511 5.83665e-14)
(176.931 -33.2804 1.16279e-14)
(10.6636 -10.745 -9.66809e-15)
(31.4704 -31.0133 0)
(81.5028 147.361 -1.53444e-14)
(11.7519 1.14511 2.07073e-14)
(-155.743 -13.2852 1.33835e-14)
(1111.9 -247.051 -8.30131e-16)
(-526.674 181.476 -5.586e-15)
(13.8283 6.23864 -5.76033e-14)
(77.4987 34.2659 0)
(484.59 -174.263 -8.58901e-15)
(227.769 -25.9902 1.72391e-14)
(74.9698 37.1205 3.52112e-14)
(119.343 -61.3709 3.41861e-14)
(-44.7249 17.8579 3.67877e-14)
(-23.9839 40.1183 -1.84283e-14)
(43.6742 -11.2568 0)
(43.325 34.6935 -1.59578e-14)
(-0.0767077 3.13287 0)
(171.12 -101.912 0)
(6.0555 -15.7001 0)
(168.211 -22.291 -3.08398e-14)
(62.2966 -52.8881 2.19089e-15)
(569.138 -109.885 6.25268e-15)
(23.2842 -25.2283 -8.18657e-15)
(20.0462 -64.656 -1.00971e-14)
(27.4205 397.245 1.59451e-14)
(67.5252 -34.8489 3.91629e-14)
(118.726 -117.596 2.26942e-14)
(45.3611 -39.6007 2.08843e-14)
(1.26465 -26.4673 0)
(-118.965 131.744 1.97027e-14)
(74.9828 15.0035 4.26896e-14)
(-198.065 88.4116 0)
(207.846 96.2458 0)
(125.877 -27.4961 0)
(-21.4558 -172.477 4.71803e-15)
(-0.474633 -46.354 -4.00378e-14)
(142.15 -67.1109 3.7601e-14)
(12.8636 -45.6218 -5.23124e-14)
(-45.1286 7.5442 0)
(114.511 51.3414 -2.07474e-14)
(3.75136 -16.4067 -4.11723e-14)
(3.57357 -4.06225 3.39506e-14)
(105.376 42.2142 0)
(320.053 -8.99345 0)
(-182.84 -8.06803 1.74218e-14)
(343.355 -82.0447 9.19518e-15)
(5.57273 -26.4904 -4.84263e-15)
(-0.555412 -8.76883 0)
(165.449 -33.3589 6.05265e-14)
(95.8657 5.37081 3.97351e-14)
(-23.2947 -284.904 -5.80648e-15)
(-155.294 -18.4006 0)
(73.7036 6.76115 0)
(76.786 -9.4779 -1.84264e-14)
(88.0767 73.5425 -6.57047e-15)
(19.441 -101.099 0)
(95.3437 13.3416 -2.0759e-14)
(-21.3329 -59.5279 9.05649e-15)
(189.607 -24.0915 0)
(108.756 -27.4317 1.94006e-14)
(567.756 234.115 -1.85697e-14)
(336.891 -120.025 2.03701e-14)
(15.0147 -55.9333 0)
(-14.6224 -73.8362 4.30175e-14)
(-11.8071 -43.2075 0)
(10.3714 238.272 -1.04592e-15)
(572.098 89.5116 0)
(-17.9909 -217.062 -1.45684e-15)
(-38.442 -19.6129 -3.76187e-14)
(96.2091 -109.903 3.25502e-14)
(3.69411 -5.72301 0)
(3.81252 2.10125 -7.40019e-15)
(353.479 -475.429 0)
(-15.0679 4.11285 -1.42387e-14)
(264.387 124.86 1.96739e-14)
(-0.3517 9.9499 -4.17821e-14)
(130.165 41.9681 -3.53774e-14)
(65.2866 78.0823 -1.714e-14)
(-8.79794 -90.1393 1.5582e-14)
(24.7468 -71.0725 -2.86931e-14)
(100.607 100.538 -8.26375e-15)
(27.5316 -16.7026 -2.50189e-14)
(67.024 -18.9556 4.0312e-14)
(-7.79243 -3.58512 0)
(173.643 1.96683 -3.44554e-14)
(262.352 55.8579 -4.4664e-14)
(313.099 -31.4369 1.47582e-14)
(23.0034 -50.4093 -1.98154e-14)
(-82.2319 15.7277 -1.51396e-14)
(32.6288 120.708 0)
(8.20654 -7.57134 0)
(137.322 196.862 -2.70008e-14)
(-15.259 92.6802 1.56756e-14)
(4.77117 32.8797 -1.70598e-14)
(128.611 -22.8846 8.60272e-15)
(227.371 -72.222 3.37388e-14)
(35.5605 -17.7802 -3.45979e-14)
(603.227 192.949 0)
(170.42 24.7462 0)
(-5.03394 -29.8359 1.11268e-15)
(-409.928 190.06 3.54908e-16)
(3.14357 -12.3141 1.319e-15)
(-104.544 -191.32 0)
(-146.06 -41.5311 3.10827e-17)
(-12.7589 -22.5577 0)
(365.201 21.9245 7.21508e-15)
(123.019 12.3285 -4.20172e-14)
(23.6312 -13.947 1.51346e-14)
(830.762 151.26 -1.90059e-14)
(-37.5503 -22.2353 0)
(35.8289 -35.0458 4.98747e-15)
(23.8636 -42.0238 1.03858e-14)
(-88.1079 79.1222 -2.99422e-14)
(60.9349 -30.9145 8.8566e-15)
(-4.92442 69.1936 -1.08739e-14)
(17.0835 -24.8917 -3.33894e-14)
(928.922 119.503 2.91203e-15)
(431.308 63.2636 -7.4011e-15)
(12.2853 -14.222 9.25219e-15)
(26.4053 -52.8367 -8.33219e-15)
(10.1503 -38.0694 -1.00034e-14)
(-7.24064 -10.3838 -3.62726e-14)
(262.658 225.673 1.95891e-14)
(156.644 -9.24286 2.85899e-14)
(80.2426 -12.2308 -4.29925e-14)
(-9.48631 -44.3175 5.54464e-14)
(20.3312 -43.6624 -7.7827e-15)
(284.6 -143.657 -1.24529e-14)
(-7.44565 -13.5528 -3.65569e-14)
(500.213 61.7194 -3.23874e-14)
(99.8042 187.298 -1.63374e-16)
(544.611 -237.198 0)
(37.9392 -12.4166 -3.99139e-14)
(61.6942 -108.691 1.99337e-14)
(133.482 -39.271 -8.50527e-15)
(185.76 56.4047 1.20406e-14)
(366.328 -84.5314 -3.38095e-14)
(307.374 -117.666 -1.08214e-14)
(28.7431 14.5757 4.15997e-14)
(148.468 150.925 0)
(-169.792 -21.1268 -1.19031e-14)
(295.721 -148.687 8.84925e-15)
(76.4008 -31.7221 0)
(51.7728 -100.376 6.0849e-14)
(4.39323 -17.7837 -1.81142e-14)
(304.342 34.289 1.02598e-14)
(416.623 -134.073 -1.2012e-14)
(21.8985 34.1433 -1.53405e-14)
(-48.0532 157.525 0)
(91.0247 -0.155599 -4.01289e-14)
(59.53 -87.5828 -1.61387e-15)
(59.1984 -4.93827 4.20137e-14)
(-39.3405 32.0438 3.2271e-14)
(-0.893129 10.134 5.1422e-15)
(33.3322 -56.7573 -1.84263e-14)
(57.6751 94.5902 -8.13664e-15)
(228.581 11.7026 0)
(205.576 29.5607 0)
(-617.723 19.5486 2.61267e-16)
(496.562 197.94 2.0521e-14)
(265.224 -240.114 -1.13635e-14)
(754.725 198.339 -2.41552e-14)
(393.926 144.95 0)
(6.82142 -136.561 -5.81818e-16)
(2.92297 -73.0887 3.40526e-14)
(354.796 -7.82282 -1.45583e-14)
(395.96 76.9102 0)
(4.92685 -5.75268 0)
(58.9629 80.7023 2.81499e-14)
(-26.8159 -41.6963 8.15852e-15)
(-220.772 -38.87 -8.25657e-15)
(-29.3792 -21.1458 9.94191e-15)
(349.343 -51.2901 9.68922e-15)
(-372.083 -190.308 0)
(-12.9291 -86.9066 0)
(105.493 98.091 -2.49222e-14)
(-18.6099 -50.8224 -7.84336e-14)
(104.145 3.35394 3.3765e-14)
(137.444 -52.5712 1.99597e-14)
(2.55275 -65.2305 4.5067e-15)
(-197.999 -0.619563 -1.77133e-14)
(143.602 185.721 3.28467e-14)
(949.079 -211.953 5.53221e-15)
(725.673 -29.0001 -6.39216e-15)
(346.115 18.2867 -2.17067e-14)
(127.504 -131.344 0)
(55.3599 -18.266 -8.38072e-14)
(113.35 -165.151 -1.06878e-14)
(72.6206 10.4806 3.26044e-14)
(56.1028 -12.4866 0)
(21.521 -40.2453 -8.84766e-15)
(65.7701 -32.3122 0)
(78.8925 -173.314 -1.78745e-14)
(221.926 273.935 -9.98332e-15)
(118.996 -15.0064 -1.80072e-14)
(226.733 73.6541 0)
(32.6454 -41.8332 0)
(125.636 -67.6567 0)
(-116.878 -114.073 -2.13805e-14)
(19.9564 2.63194 -3.9369e-14)
(-40.9024 21.131 2.36915e-14)
(446.598 -284.675 2.55934e-14)
(587.498 -97.795 0)
(2.5877 4.72494 -1.09221e-14)
(-29.1827 -1.20071 1.98684e-14)
(-158.667 -39.9758 0)
(5.80985 10.9596 0)
(256.628 29.7118 -6.50676e-15)
(-1.28773 -4.74716 -2.02698e-14)
(-19.7446 423.099 0)
(47.2702 -223.994 1.44467e-14)
(49.5144 -30.9408 1.90048e-14)
(152.115 -256.878 -9.35264e-16)
(205.747 -74.3924 1.68574e-14)
(189.271 -38.3317 1.77306e-14)
(28.3814 2.62219 -1.12979e-14)
(22.2323 -19.9805 2.385e-15)
(18.4654 -33.9178 2.07263e-14)
(20.2545 84.878 1.51492e-14)
(28.3793 35.3496 0)
(-92.6621 133.31 3.81087e-15)
(-11.5674 5.7869 0)
(-81.7165 -7.74176 -2.27142e-14)
(-165.056 187.141 0)
(27.5658 -15.7998 1.88422e-14)
(292.674 62.6521 6.89696e-15)
(126.086 -49.6232 -4.33424e-14)
(53.8507 -53.0816 -3.93213e-14)
(214.594 -73.117 -5.84827e-15)
(87.1663 -45.5102 1.30587e-14)
(138.874 88.2387 0)
(-52.8518 11.2339 1.05562e-14)
(2.03544 -5.31924 -6.354e-16)
(8.90217 -31.8775 0)
(-166.843 3.48315 -5.10962e-14)
(-70.8814 52.6005 5.39189e-14)
(-99.6852 -135.778 5.69183e-16)
(-225.144 405.221 1.82501e-15)
(69.0639 -27.8355 -4.86421e-15)
(2.17356 50.1081 0)
(63.826 -53.9379 0)
(-2.66023 -37.3113 -3.93053e-14)
(-37.6027 6.72189 -2.59994e-14)
(109.941 -1.83445 0)
(336.289 -498.929 0)
(88.6842 24.2812 1.92519e-14)
(169.123 84.3474 0)
(-21.1723 27.2554 0)
(-369.547 -196.606 1.58082e-14)
(3.46881 13.067 -3.49031e-14)
(-10.7439 -36.5865 0)
(-84.5241 -130.204 0)
(348.052 172.803 1.26194e-14)
(322.992 -193.404 9.20252e-17)
(78.5141 -33.5472 3.76311e-14)
(596.878 -160.971 -4.34108e-15)
(66.6158 119.327 8.07807e-15)
(128.502 -309.928 9.19739e-15)
(216.62 12.0939 -1.3382e-16)
(-20.5504 88.3511 1.37289e-14)
(-73.7883 10.2779 -3.59912e-14)
(-127.321 -52.6346 8.66575e-16)
(238.732 -154.158 6.37232e-15)
(352.783 2.41834 0)
(198.395 -28.9703 9.62624e-15)
(95.4586 -27.2251 9.52714e-15)
(127.257 -50.4672 -4.87847e-14)
(255.066 -335.122 2.70447e-15)
(-55.1212 -93.1027 0)
(28.4668 -10.202 0)
(-434.372 -148.302 -5.47384e-17)
(-3.17916 -24.107 6.60586e-16)
(-20.7956 18.758 -2.63556e-14)
(73.1239 -10.5938 -1.30914e-14)
(-31.4246 -67.3165 -1.78863e-14)
(-12.1263 -42.6361 -4.65629e-15)
(17.2054 4.46401 3.75915e-17)
(0.812086 -36.0259 0)
(20.0969 -55.0422 -9.49641e-15)
(76.6371 -46.3033 0)
(76.1587 -104.604 -1.95277e-14)
(120.463 -2.19997 -3.60152e-14)
(90.4831 -15.0338 -4.00604e-14)
(19.3347 115.428 -1.53083e-14)
(81.1441 207.535 2.73202e-14)
(149.093 -113.428 3.52932e-14)
(48.3219 164.896 -8.55566e-15)
(317.637 118.741 1.66357e-14)
(147.675 -42.5288 3.04268e-14)
(-9.32275 -61.2954 2.89288e-14)
(-100.616 -2.57021 0)
(391.307 -295.032 2.48611e-14)
(-13.6406 -36.8435 0)
(556.417 -149.916 0)
(630.953 -187.207 0)
(-122.905 114.33 1.19738e-14)
(638.906 84.7188 6.04003e-15)
(52.1368 4.58487 1.18563e-15)
(-166.389 -111.659 0)
(50.8996 42.0348 -3.02019e-14)
(66.2621 3.4644 3.37455e-14)
(-154.622 61.1731 0)
(-0.495252 -112.362 8.57415e-15)
(377.189 -111.061 1.17195e-14)
(-110.287 -56.4254 2.63901e-14)
(9.86716 15.1729 2.11511e-14)
(454.867 -85.5171 -1.63359e-14)
(-6.41164 -34.9823 -2.97315e-14)
(817.159 88.6273 -1.03564e-14)
(677.186 -137.36 2.05138e-14)
(-405.032 38.3499 -1.64224e-14)
(-2.1259 -9.63105 0)
(-190.303 -117.964 1.55208e-14)
(46.4536 -4.3026 -3.02668e-14)
(12.126 -8.5386 -5.32973e-14)
(-112.06 22.6809 0)
(12.8053 209.372 0)
(-14.69 -32.2661 -2.00025e-14)
(45.5862 -37.6803 0)
(227.353 -21.112 -3.07874e-14)
(-535.121 -124.062 2.47545e-15)
(411.501 -470.556 0)
(160.558 -65.5804 -2.35753e-14)
(122.246 -4.88286 2.05909e-14)
(230.676 -46.8612 0)
(294.332 -91.553 -3.62726e-14)
(142.784 9.99564 -9.36516e-15)
(415.969 59.9904 -1.38057e-14)
(-51.5262 -4.5247 2.00012e-14)
(316.638 213.872 -3.34794e-14)
(94.1519 -44.9425 0)
(-4.62537 66.5462 -3.25631e-14)
(35.1477 -24.5017 -3.91727e-14)
(195.584 -8.02256 1.43983e-14)
(304.676 41.5931 -2.95877e-17)
(-217.059 15.0359 -1.63492e-14)
(217.56 27.1679 -1.65194e-14)
(113.099 -43.8621 0)
(4.50556 -8.51918 1.93502e-14)
(-29.2089 -93.7854 -4.84947e-14)
(84.298 -18.5638 1.82702e-14)
(217.562 441.647 -1.26636e-14)
(-18.5745 -75.6248 -9.85061e-15)
(757.074 -547.299 3.15833e-15)
(-6.9758 -81.4471 -6.2459e-16)
(30.0999 -40.8975 6.11412e-14)
(6.59915 -23.0215 0)
(187.014 33.3375 -1.24442e-14)
(115.029 -51.6082 -3.41617e-14)
(-119.161 7.47428 -1.14159e-14)
(11.5624 -1.99683 0)
(112.404 -43.795 4.15865e-14)
(96.5014 10.5282 0)
(49.7598 -26.3986 1.82484e-14)
(-335.283 7.99205 4.2466e-15)
(-3.23971 -30.3611 3.40298e-14)
(209.205 125.827 0)
(85.6363 14.2554 0)
(5.49535 1.75167 -6.1121e-14)
(141.42 120.537 -1.76324e-14)
(141.175 14.44 1.69793e-14)
(-310.153 192.682 2.07962e-14)
(941.584 57.8817 0)
(78.2025 -107.419 -2.64498e-14)
(-166.491 392.545 2.24378e-15)
(-11.1563 -31.7316 3.56717e-14)
(12.14 -14.0179 -3.80113e-14)
(20.3305 -18.596 4.05271e-14)
(-11.3005 14.3059 -1.93104e-14)
(98.1473 -129.267 3.39173e-14)
(152.002 -154.062 -4.8685e-14)
(-1.43404 17.1808 -8.49214e-18)
(-5.69362 -13.747 -3.82062e-14)
(-152.217 -59.2548 -3.16345e-14)