/*--------------------------------*- C++ -*----------------------------------*\
  =========                 |
  \\      /  F ield         | OpenFOAM: The Open Source CFD Toolbox
   \\    /   O peration     | Website:  https://openfoam.org
    \\  /    A nd           | Version:  7
     \\/     M anipulation  |
\*---------------------------------------------------------------------------*/
FoamFile
{
    version     2.0;
    format      ascii;
    class       volScalarField;
    location    "8";
    object      p;
}
// * * * * * * * * * * * * * * * * * * * * * * * * * * * * * * * * * * * * * //

dimensions      [0 2 -2 0 0 0 0];

internalField   nonuniform List<scalar> 
13182
(
0.188289
0.0358408
0.138732
0.197721
0.0738195
0.179474
0.180686
0.194235
0.200683
0.0925791
0.0926403
0.110598
0.181484
0.179468
0.176968
0.184949
0.199621
0.202952
0.175273
0.176702
0.175779
0.191275
0.18382
0.160461
0.16
0.16131
0.192794
0.159234
0.112473
0.203464
0.203414
0.199575
0.184452
0.0913805
0.0838652
0.176784
0.20027
0.120897
0.129551
0.19308
0.0364612
0.0414736
0.139462
0.0186299
0.15554
0.0665042
0.197459
0.128831
0.123462
0.196245
0.151297
0.152919
0.0887578
0.193826
0.180349
0.162131
0.115983
0.195159
0.180834
0.201483
0.200353
0.198511
0.193372
0.165713
0.149562
0.148628
0.182549
0.15743
0.0774631
0.16777
0.0218198
0.191507
0.193336
0.158445
0.031576
0.199684
0.199713
0.196544
0.188339
0.187962
0.203107
0.0887147
0.174987
0.176408
0.0305521
0.0323176
0.0390397
0.0974489
0.1622
0.165161
0.106672
0.199984
0.097757
0.0969888
0.188979
0.196162
0.106846
0.186296
0.195588
0.176126
0.173928
0.116398
0.146348
0.179683
0.189557
0.152403
0.0387417
0.0374273
0.199551
0.127435
0.19548
0.0546427
0.0506101
0.180273
0.147507
0.0967615
0.194807
0.0305398
0.166981
0.165472
0.163797
0.0761925
0.199596
0.177048
0.136427
0.131949
0.176805
0.201635
0.17801
0.118981
0.0115397
0.0105623
0.194667
0.0703127
0.180323
0.200445
0.199098
0.167158
0.17819
0.188107
0.102148
0.0319467
0.0369742
0.147002
0.144884
0.19508
0.186656
0.0688054
0.201855
0.120835
0.0188541
0.150237
0.150976
0.119136
0.1603
0.158982
0.0276906
0.059175
0.0453803
0.157337
0.159086
0.118843
0.108831
0.193188
0.189734
0.14263
0.20054
0.167709
0.143181
0.0670072
0.0847944
0.182358
0.182039
0.0137962
0.124935
0.191134
0.0561256
0.105329
0.192817
0.177418
0.158897
0.120249
0.20039
0.16995
0.0812458
0.123495
0.129239
0.190299
0.155889
0.151679
0.109417
0.200141
0.126955
0.0313604
0.199731
0.139392
0.117096
0.173589
0.158794
0.163982
0.189203
0.189383
0.0231011
0.196103
0.0978934
0.0284915
0.0810646
0.00884788
0.200908
0.0924793
0.140161
0.00769969
0.194309
0.180465
0.106828
0.16937
0.15211
0.200846
0.139617
0.0193315
0.154461
0.158505
0.0160969
0.178872
0.0787357
0.200277
0.196701
0.202989
0.203673
0.191079
0.195967
0.18781
0.18705
0.180236
0.191603
0.193283
0.138388
0.192837
0.192616
0.185999
0.0244465
0.0260353
0.194137
0.183768
0.184668
0.178367
0.166859
0.166261
0.198151
0.166694
0.18372
0.0942389
0.137259
0.138904
0.0294639
0.199671
0.104777
0.0184781
0.0167969
0.0562483
0.135004
0.200796
0.199248
0.204975
0.166427
0.142528
0.100537
0.194964
0.164718
0.197539
0.195787
0.195449
0.194458
0.117418
0.199732
0.117307
0.193568
0.192693
0.168694
0.0286554
0.203151
0.128519
0.127027
0.179685
0.185632
0.121734
0.123724
0.203145
0.0780102
0.196263
0.196364
0.0934884
0.0698578
0.155679
0.198266
0.198344
0.200054
0.200001
0.201882
0.20164
0.141376
0.164857
0.188841
0.188306
0.0827259
0.062036
0.168017
0.172282
0.197889
0.141563
0.185041
0.201719
0.128505
0.193409
0.20028
0.199943
0.200078
0.181159
0.203506
0.10569
0.101435
0.0694516
0.193228
0.193675
0.18051
0.198639
0.149655
0.174842
0.149591
0.123429
0.174802
0.17558
0.106416
0.107174
0.110064
0.163893
0.165553
0.174515
0.201521
0.0879602
0.024032
0.193111
0.204451
0.078162
0.0808561
0.196103
0.164016
0.1658
0.17995
0.158145
0.16031
0.20013
0.0663861
0.191946
0.191734
0.197128
0.187006
0.187639
0.199399
0.18822
0.0990189
0.200657
0.0567554
0.191488
0.0593452
0.0691448
0.199856
0.189058
0.189683
0.134804
0.200329
0.189868
0.103094
0.133515
0.185152
0.199621
0.128047
0.0870032
0.0230469
0.176114
0.165682
0.102031
0.199919
0.17981
0.149802
0.151691
0.139145
0.192272
0.0749363
0.175942
0.158813
0.20273
0.202835
0.175375
0.174438
0.195306
0.200253
0.0962404
0.136285
0.193177
0.0998311
0.0940818
0.169272
0.200389
0.19402
0.115935
0.159856
0.200866
0.199161
0.145274
0.17588
0.176548
0.101706
0.147865
0.204303
0.0684346
0.197648
0.0851477
0.13649
0.184492
0.142776
0.18916
0.20008
0.200293
0.204208
0.0873657
0.194064
0.151417
0.187265
0.188547
0.0251822
0.160124
0.167964
0.196514
0.189154
0.077391
0.183555
0.130595
0.0906191
0.182271
0.0456271
0.134796
0.137544
0.172494
0.150542
0.198208
0.049404
0.199794
0.0991025
0.203051
0.195511
0.115781
0.114038
0.197902
0.053737
0.16384
0.204874
0.200015
0.199775
0.19464
0.200846
0.188496
0.0596907
0.193107
0.196415
0.203462
0.134531
0.133164
0.199388
0.188475
0.18854
0.0642301
0.202611
0.157764
0.0643419
0.132672
0.201981
0.105584
0.202022
0.199061
0.198571
0.199367
0.144049
0.194821
0.0307725
0.103946
0.172596
0.109659
0.0736321
0.0376712
0.196341
0.148731
0.198872
0.0566929
0.205025
0.125598
0.159569
0.0326857
0.183427
0.0912276
0.197672
0.193234
0.199345
0.0658026
0.10292
0.17872
0.195572
0.195341
0.136034
0.120425
0.123314
0.125869
0.183918
0.165254
0.155232
0.183869
0.131049
0.196721
0.17704
0.0524909
0.178882
0.190741
0.191142
0.123147
0.141639
0.144302
0.196003
0.158923
0.20265
0.158224
0.158892
0.194375
0.183975
0.185477
0.018212
0.178593
0.1777
0.111959
0.160482
0.15448
0.173743
0.102769
0.203135
0.122138
0.183845
0.148643
0.145955
0.190491
0.115912
0.20052
0.202517
0.187493
0.188015
0.189876
0.188973
0.198004
0.204014
0.193609
0.164509
0.194468
0.0732909
0.201132
0.189612
0.156293
0.195455
0.190092
0.156982
0.0514136
0.120488
0.175002
0.172013
0.100379
0.0976792
0.159816
0.199687
0.192423
0.188572
0.181059
0.193317
0.128966
0.172395
0.0884916
0.198498
0.186064
0.184037
0.174284
0.199705
0.192098
0.192735
0.131497
0.131738
0.0385402
0.189361
0.173491
0.184739
0.106904
0.140923
0.200365
0.204724
0.204418
0.195428
0.189757
0.190025
0.189392
0.0903635
0.154584
0.0897638
0.14872
0.200138
0.199319
0.202515
0.0990255
0.193252
0.0823067
0.133788
0.0483164
0.112348
0.162524
0.0889912
0.154856
0.197836
0.108169
0.188268
0.199747
0.0838449
0.0914887
0.203184
0.180977
0.085948
0.194923
0.203256
0.203372
0.167984
0.163352
0.0832643
0.106503
0.19471
0.188767
0.195805
0.180485
0.194495
0.109444
0.15959
0.189876
0.199718
0.0738228
0.103586
0.19567
0.128876
0.0779842
0.197761
0.197433
0.118988
0.200397
0.197738
0.101499
0.203357
0.135925
0.0890509
0.103114
0.200406
0.128197
0.0927045
0.173774
0.176866
0.175518
0.187308
0.187648
0.200833
0.149348
0.205087
0.185225
0.201045
0.173858
0.196022
0.0651694
0.203124
0.190046
0.0930692
0.19658
0.150448
0.198159
0.198093
0.110521
0.20033
0.105638
0.105614
0.0980544
0.097933
0.19851
0.180904
0.181881
0.0500002
0.110542
0.200392
0.200432
0.187829
0.177287
0.159968
0.0834139
0.199419
0.200122
0.193789
0.189088
0.0649442
0.151678
0.195544
0.19434
0.0428713
0.157297
0.192853
0.196991
0.190512
0.189744
0.0964055
0.104028
0.19717
0.197608
0.193872
0.0236245
0.0554462
0.113901
0.196838
0.175577
0.203489
0.204647
0.0648271
0.0528275
0.12988
0.205131
0.179671
0.171424
0.163226
0.187328
0.174657
0.125843
0.191128
0.199466
0.17261
0.150812
0.152193
0.197461
0.15447
0.154635
0.204046
0.0975203
0.164049
0.171325
0.180131
0.157282
0.199115
0.0997323
0.173691
0.188645
0.0671853
0.200345
0.15435
0.173231
0.199543
0.077628
0.193132
0.198829
0.0682637
0.132129
0.199238
0.201705
0.164629
0.177587
0.115657
0.196012
0.0329461
0.027451
0.19669
0.177613
0.199648
0.200872
0.0969344
0.15857
0.195605
0.198911
0.157791
0.121482
0.201214
0.159935
0.0205667
0.0174156
0.202125
0.175308
0.17625
0.132086
0.144225
0.0574061
0.191245
0.0959143
0.163248
0.0853417
0.192538
0.187572
0.197686
0.0982929
0.117114
0.152436
0.106159
0.193815
0.0553197
0.198134
0.15312
0.199466
0.188919
0.170696
0.161454
0.0252575
0.0951364
0.101012
0.118302
0.0541063
0.120746
0.198192
0.195249
0.156222
0.156718
0.203686
0.139411
0.169827
0.168565
0.198623
0.0900561
0.0843673
0.179696
0.174171
0.194639
0.178397
0.193643
0.192994
0.165076
0.171374
0.0635954
0.0648979
0.119552
0.160305
0.201947
0.114629
0.170109
0.197563
0.181474
0.167837
0.168129
0.110957
0.169778
0.142316
0.197933
0.190808
0.176544
0.200932
0.179857
0.138884
0.010658
0.204635
0.195871
0.034687
0.176815
0.0764393
0.203183
0.0565562
0.145489
0.195628
0.037965
0.17233
0.188464
0.199035
0.199759
0.199647
0.15569
0.201306
0.148639
0.193204
0.19186
0.0300198
0.198797
0.143775
0.192931
0.198535
0.0675641
0.113826
0.164489
0.191495
0.200916
0.198811
0.1611
0.160149
0.18551
0.0220086
0.19154
0.196429
0.120959
0.196852
0.109558
0.155316
0.0134493
0.190673
0.0807379
0.177721
0.116527
0.203372
0.194903
0.188954
0.118211
0.122342
0.186838
0.0532374
0.0867031
0.0749125
0.0735842
0.139757
0.184975
0.134292
0.123998
0.127085
0.0975556
0.190647
0.190462
0.118234
0.188545
0.200469
0.0228657
0.199866
0.179591
0.176747
0.182133
0.193374
0.195592
0.189505
0.189699
0.119872
0.191853
0.182502
0.189174
0.172083
0.170356
0.172104
0.0863902
0.155651
0.156467
0.195733
0.0848798
0.133809
0.158462
0.105924
0.102009
0.152898
0.065741
0.191065
0.12919
0.174277
0.173489
0.125787
0.180563
0.0828586
0.153168
0.199976
0.0828578
0.202085
0.10984
0.103593
0.150035
0.203932
0.153527
0.198482
0.19789
0.177334
0.154242
0.190943
0.198082
0.175597
0.0231521
0.0841744
0.173889
0.194135
0.186863
0.185503
0.180678
0.0747383
0.196082
0.159383
0.19579
0.114138
0.198464
0.154801
0.17046
0.171539
0.173689
0.177078
0.176373
0.175604
0.180811
0.0599594
0.178916
0.015481
0.197151
0.197014
0.196774
0.163031
0.179976
0.159102
0.202451
0.189041
0.187389
0.176928
0.0525166
0.197142
0.0840851
0.194178
0.203661
0.168016
0.168246
0.123753
0.0133294
0.171709
0.0924679
0.197026
0.199151
0.199573
0.199824
0.163897
0.164245
0.203439
0.200322
0.188472
0.205155
0.194805
0.201195
0.13583
0.140802
0.0181877
0.126526
0.0528147
0.190267
0.0593813
0.198495
0.118838
0.200683
0.201199
0.197079
0.190446
0.0720186
0.169384
0.157918
0.19457
0.141291
0.195574
0.120226
0.127279
0.155862
0.0328892
0.197766
0.0685812
0.0681633
0.165543
0.200857
0.197055
0.106711
0.150711
0.181027
0.145582
0.166679
0.0802464
0.0467471
0.200916
0.147333
0.163385
0.123946
0.118809
0.117071
0.167879
0.204353
0.202281
0.167444
0.0841233
0.112637
0.189093
0.200982
0.200927
0.05834
0.0599247
0.199468
0.199137
0.201059
0.143641
0.151109
0.168026
0.0568966
0.11266
0.193243
0.112372
0.112606
0.191067
0.173457
0.156462
0.156604
0.188338
0.174579
0.18278
0.0479551
0.102199
0.129917
0.128167
0.194022
0.122299
0.199326
0.157127
0.152309
0.180462
0.0287731
0.168316
0.0878261
0.176208
0.189083
0.0190158
0.0162044
0.195926
0.0526494
0.200595
0.0322701
0.168134
0.184817
0.201332
0.196753
0.132357
0.181172
0.122635
0.18785
0.182134
0.183431
0.128968
0.12606
0.200781
0.0426363
0.0889436
0.200953
0.203529
0.202179
0.193515
0.0194749
0.127582
0.129042
0.0567782
0.188043
0.15805
0.171717
0.179195
0.0734552
0.17749
0.110485
0.115559
0.203251
0.10459
0.187186
0.168183
0.107994
0.0976027
0.196219
0.0782693
0.0549714
0.197679
0.158669
0.194231
0.187288
0.0264708
0.149494
0.126055
0.193252
0.190869
0.192048
0.188192
0.197829
0.118897
0.189889
0.099655
0.155315
0.188319
0.171113
0.118799
0.0115554
0.169133
0.196592
0.205357
0.165508
0.167064
0.0540432
0.190491
0.165702
0.120328
0.152628
0.0934576
0.180518
0.190057
0.19013
0.170023
0.153068
0.196277
0.190562
0.11622
0.116218
0.0831896
0.0559339
0.15886
0.188928
0.181513
0.127237
0.163995
0.189047
0.111615
0.196883
0.0993398
0.033635
0.112116
0.196172
0.101954
0.180404
0.162128
0.142253
0.177383
0.162673
0.16165
0.14838
0.144272
0.164429
0.0283292
0.196192
0.197503
0.0842861
0.199934
0.0805765
0.100533
0.133645
0.204746
0.191621
0.0572
0.0476902
0.155927
0.186201
0.18893
0.176458
0.129018
0.0701942
0.202401
0.20222
0.0157554
0.159636
0.0659701
0.163779
0.195149
0.194541
0.190219
0.182383
0.194834
0.12933
0.184575
0.173107
0.173209
0.0928246
0.151607
0.173653
0.197343
0.128915
0.152024
0.152452
0.125283
0.128613
0.127665
0.103495
0.195059
0.198552
0.171727
0.166318
0.156591
0.155583
0.127795
0.146088
0.198815
0.195632
0.182297
0.171417
0.173072
0.126911
0.201715
0.20156
0.19809
0.125966
0.168567
0.170565
0.170241
0.171498
0.055443
0.193277
0.198931
0.0417687
0.0360962
0.175618
0.199449
0.199063
0.124638
0.196411
0.175614
0.0717124
0.173503
0.176923
0.200904
0.200765
0.199705
0.197592
0.12088
0.195668
0.114054
0.115329
0.182711
0.151212
0.194984
0.130049
0.173677
0.169253
0.0515831
0.067511
0.121838
0.0367017
0.165536
0.0324781
0.171065
0.19557
0.0634015
0.143329
0.142787
0.200231
0.135691
0.18728
0.198035
0.0233747
0.195749
0.201042
0.203088
0.185801
0.185285
0.139412
0.192869
0.204032
0.136668
0.198669
0.198563
0.114301
0.117071
0.197503
0.130857
0.201861
0.200965
0.199465
0.1998
0.0566986
0.201015
0.195636
0.0366148
0.0615897
0.15001
0.192768
0.152261
0.181201
0.173764
0.157392
0.182116
0.177689
0.196487
0.195807
0.181841
0.196864
0.20471
0.202041
0.119078
0.200342
0.199243
0.199272
0.140824
0.143475
0.199144
0.165234
0.201002
0.197092
0.176719
0.204843
0.0885374
0.138199
0.193326
0.175483
0.176696
0.109405
0.156312
0.170088
0.195138
0.0936365
0.179102
0.199643
0.202228
0.202333
0.190778
0.203331
0.198553
0.108245
0.198696
0.189272
0.194783
0.156116
0.203123
0.136878
0.111104
0.198428
0.198244
0.178106
0.0268046
0.176115
0.131899
0.152634
0.163645
0.164366
0.164275
0.124821
0.169293
0.202986
0.2008
0.151709
0.183137
0.141234
0.136139
0.194639
0.160684
0.158743
0.152028
0.13162
0.189379
0.171848
0.191566
0.203963
0.151547
0.200936
0.200109
0.20006
0.0445442
0.155357
0.154633
0.0269899
0.132407
0.106137
0.187271
0.193951
0.195973
0.164058
0.0818601
0.0842868
0.195263
0.161541
0.201302
0.0830623
0.201969
0.201954
0.196859
0.181044
0.132711
0.035313
0.0729706
0.145441
0.151042
0.19242
0.0516906
0.0533471
0.0683624
0.198106
0.198339
0.190219
0.168667
0.137171
0.14982
0.130765
0.113589
0.147042
0.0904818
0.176749
0.194201
0.181879
0.181351
0.200911
0.0929467
0.139853
0.189547
0.118264
0.113571
0.126176
0.0674797
0.179344
0.180615
0.195109
0.121046
0.150468
0.200087
0.2001
0.142173
0.14269
0.0617154
0.191968
0.129813
0.0318478
0.178455
0.116276
0.0700373
0.0298855
0.185105
0.185189
0.0824519
0.200786
0.0278088
0.202449
0.19307
0.109552
0.19344
0.192933
0.163689
0.197119
0.0896085
0.107702
0.165349
0.15659
0.202423
0.200079
0.168597
0.0596346
0.0722906
0.200362
0.200455
0.200245
0.205354
0.112151
0.189612
0.107406
0.106551
0.189899
0.198287
0.196782
0.201359
0.0791856
0.0922326
0.0355137
0.153201
0.152699
0.170264
0.177695
0.167181
0.204775
0.0705458
0.194461
0.166266
0.204646
0.0583997
0.190588
0.129737
0.094139
0.103498
0.0490754
0.17365
0.177979
0.0612582
0.0677696
0.0379531
0.0567091
0.191475
0.115636
0.0927021
0.097143
0.193729
0.0546828
0.178121
0.202246
0.0190364
0.194354
0.145153
0.0651151
0.159653
0.121914
0.171388
0.162304
0.0708274
0.197305
0.19177
0.194308
0.189394
0.200469
0.205276
0.0539515
0.166952
0.194328
0.118775
0.106269
0.196448
0.195478
0.181593
0.142847
0.191939
0.198841
0.198743
0.202213
0.193643
0.0717726
0.0767462
0.163481
0.19265
0.198405
0.198549
0.198708
0.19809
0.165534
0.199492
0.176759
0.177609
0.179469
0.188039
0.0556786
0.204099
0.19278
0.0671857
0.197747
0.116201
0.1952
0.0881901
0.199418
0.202346
0.1938
0.107738
0.101905
0.199224
0.203262
0.193318
0.195556
0.0364127
0.111883
0.183554
0.178182
0.171078
0.169127
0.19465
0.204338
0.17695
0.198924
0.170902
0.201943
0.17986
0.179701
0.19426
0.159206
0.187793
0.154646
0.190364
0.0375309
0.0994449
0.194227
0.0757364
0.147034
0.13412
0.0400947
0.190041
0.164665
0.200227
0.191634
0.12352
0.0136631
0.185321
0.194661
0.119524
0.0725373
0.104876
0.103048
0.109629
0.149627
0.191808
0.197805
0.162973
0.12495
0.1861
0.19938
0.192729
0.17432
0.192484
0.168712
0.0179934
0.191651
0.14279
0.13934
0.0871908
0.123347
0.205188
0.205257
0.176789
0.0287967
0.124011
0.197996
0.0623104
0.194171
0.198634
0.0831504
0.087855
0.036127
0.108932
0.203248
0.198178
0.172507
0.202102
0.188778
0.162965
0.203637
0.195561
0.178082
0.198207
0.102004
0.199313
0.0742819
0.0762445
0.113113
0.168307
0.199996
0.187809
0.183164
0.0498556
0.202282
0.199357
0.1559
0.157425
0.143275
0.137996
0.180175
0.18132
0.169515
0.200332
0.0737363
0.190351
0.0299483
0.161974
0.186779
0.0633449
0.19844
0.197903
0.194546
0.200843
0.200935
0.200137
0.184591
0.20539
0.176463
0.158243
0.202669
0.173454
0.194167
0.100661
0.112087
0.124512
0.176471
0.204689
0.20476
0.117156
0.160395
0.19708
0.177591
0.191198
0.0520855
0.0874089
0.094688
0.0939416
0.204748
0.171369
0.175257
0.144678
0.190919
0.194543
0.199802
0.200661
0.0603336
0.0576693
0.117053
0.105459
0.19981
0.195455
0.169931
0.0253791
0.197294
0.0910186
0.143597
0.0123062
0.138673
0.134433
0.176428
0.0701022
0.183882
0.183228
0.183509
0.175231
0.162246
0.194577
0.199074
0.109502
0.201892
0.203551
0.0949742
0.193499
0.105542
0.172338
0.171306
0.194385
0.194884
0.146402
0.185355
0.187687
0.188502
0.094913
0.131699
0.135021
0.190941
0.0465637
0.186905
0.119506
0.12571
0.186916
0.174483
0.197716
0.0225005
0.192813
0.191849
0.161484
0.0569782
0.200312
0.19475
0.163476
0.203203
0.163364
0.194878
0.155253
0.195172
0.107886
0.0948105
0.0969038
0.198614
0.115826
0.18448
0.170266
0.184542
0.119744
0.141669
0.168336
0.200269
0.200288
0.189706
0.172561
0.183069
0.0740323
0.20194
0.152825
0.152458
0.0990171
0.196368
0.125349
0.0763778
0.167828
0.198005
0.198171
0.187228
0.199325
0.203863
0.16306
0.0816353
0.179708
0.0298341
0.0873599
0.1624
0.162236
0.0195329
0.203458
0.0913311
0.039129
0.19818
0.109483
0.193084
0.065806
0.142259
0.197248
0.200147
0.204225
0.199409
0.168723
0.19844
0.194802
0.194397
0.199927
0.200817
0.12144
0.16271
0.0792024
0.180596
0.110679
0.0789689
0.131266
0.108951
0.19921
0.159766
0.161818
0.0648179
0.171149
0.201471
0.16463
0.0132399
0.0163136
0.201411
0.174659
0.020891
0.131416
0.197189
0.192721
0.0827277
0.179466
0.199432
0.200284
0.0755929
0.0845241
0.0327983
0.17193
0.172023
0.196249
0.161475
0.161561
0.0166709
0.0591275
0.137848
0.00971073
0.170128
0.200927
0.0581529
0.0706784
0.0296843
0.200983
0.1983
0.198645
0.202098
0.201918
0.189712
0.106374
0.107793
0.198369
0.198385
0.196747
0.1985
0.204924
0.192991
0.192169
0.161117
0.059181
0.145124
0.151758
0.0968656
0.170725
0.197914
0.198925
0.120544
0.164443
0.199865
0.203543
0.205343
0.0606282
0.126387
0.177224
0.0972015
0.197254
0.199504
0.159604
0.159795
0.12725
0.170625
0.184381
0.121861
0.198202
0.191136
0.188583
0.187507
0.186313
0.0338706
0.117252
0.12208
0.186368
0.200691
0.161309
0.0500303
0.0390533
0.042687
0.113995
0.0887449
0.196342
0.1987
0.182507
0.0474933
0.18215
0.203046
0.199932
0.170896
0.200854
0.204619
0.204807
0.17392
0.194819
0.188789
0.0539703
0.196661
0.194147
0.116777
0.134198
0.170114
0.181932
0.181556
0.194892
0.161999
0.194083
0.0661758
0.129557
0.131554
0.15155
0.152194
0.142092
0.138652
0.117673
0.158344
0.0562919
0.0623468
0.203253
0.202033
0.202295
0.201914
0.0216285
0.0192771
0.187847
0.18239
0.152525
0.101303
0.0867543
0.186963
0.157144
0.176853
0.190736
0.0100307
0.0733095
0.151672
0.178136
0.178547
0.154708
0.199392
0.201517
0.0101523
0.0111445
0.199553
0.0700673
0.19291
0.123083
0.0950764
0.162081
0.191804
0.180195
0.108558
0.10942
0.199484
0.176326
0.190271
0.0551428
0.201827
0.110738
0.112511
0.19389
0.150131
0.189904
0.179142
0.178674
0.0861627
0.122793
0.0569788
0.0266989
0.0270067
0.0254018
0.200061
0.200076
0.173367
0.177638
0.193974
0.196756
0.197151
0.167002
0.144059
0.0266698
0.20076
0.19804
0.154896
0.16718
0.16693
0.101183
0.169906
0.187426
0.129768
0.190124
0.197263
0.201573
0.195036
0.0088293
0.143764
0.205356
0.181068
0.179538
0.168105
0.182728
0.182975
0.12336
0.0800044
0.182235
0.143136
0.175128
0.176846
0.191273
0.153122
0.169792
0.153148
0.150985
0.118498
0.198917
0.189473
0.199777
0.201716
0.0559517
0.182306
0.104071
0.111126
0.183527
0.147011
0.191871
0.169005
0.111205
0.128274
0.021588
0.122939
0.0910976
0.200632
0.192285
0.19675
0.0167482
0.0149226
0.200306
0.16933
0.0897582
0.177515
0.18268
0.180298
0.203996
0.193572
0.128918
0.137155
0.139883
0.205154
0.202314
0.194676
0.194801
0.187485
0.186006
0.116943
0.145699
0.118241
0.168754
0.176185
0.168624
0.200939
0.197306
0.200137
0.199936
0.196212
0.200602
0.0539099
0.149724
0.155726
0.189854
0.18947
0.192341
0.0579719
0.110073
0.149914
0.152911
0.0363642
0.141764
0.0892265
0.172826
0.114771
0.115942
0.106903
0.19689
0.199933
0.201932
0.19747
0.18815
0.129392
0.126712
0.179645
0.182377
0.10551
0.0573813
0.0622031
0.18522
0.136309
0.136331
0.0596015
0.0643887
0.196601
0.077756
0.0803479
0.0976369
0.195186
0.185543
0.0255381
0.0960873
0.18268
0.177987
0.12144
0.136074
0.168647
0.199649
0.0443662
0.135654
0.162464
0.0341832
0.185642
0.188229
0.16351
0.174949
0.20154
0.201487
0.19145
0.122831
0.104365
0.137815
0.178652
0.196808
0.116191
0.154933
0.193754
0.182063
0.0439934
0.11961
0.158431
0.119718
0.057574
0.157843
0.0994537
0.181443
0.16606
0.20113
0.155986
0.189828
0.196033
0.151683
0.168958
0.0864861
0.0822809
0.117979
0.155907
0.138738
0.0305703
0.182299
0.172018
0.178945
0.0290467
0.16307
0.187352
0.202679
0.202485
0.195674
0.097646
0.179246
0.0524624
0.0476102
0.163782
0.192117
0.197856
0.197422
0.198014
0.192819
0.192637
0.187462
0.126854
0.200267
0.191732
0.163091
0.172463
0.201253
0.199913
0.188514
0.191434
0.158898
0.169559
0.192247
0.200816
0.0507452
0.131849
0.0188539
0.0328015
0.0313328
0.177608
0.179624
0.179762
0.181465
0.186405
0.0407243
0.183159
0.0616625
0.061608
0.151824
0.1286
0.204422
0.141182
0.192699
0.140065
0.0223134
0.180032
0.102056
0.190571
0.186355
0.201173
0.200757
0.146731
0.166115
0.199646
0.0959535
0.133512
0.163122
0.12799
0.0574697
0.0494174
0.176925
0.190906
0.195598
0.190823
0.170257
0.186823
0.025499
0.203785
0.203882
0.0559317
0.199643
0.0343101
0.0791848
0.199149
0.200092
0.186474
0.185752
0.193838
0.155778
0.155608
0.200237
0.198676
0.198425
0.170995
0.166971
0.20194
0.20199
0.196728
0.17032
0.0584761
0.175259
0.194858
0.186888
0.0484532
0.165988
0.170116
0.0706335
0.154154
0.147888
0.166819
0.106971
0.196637
0.193764
0.194334
0.012623
0.195859
0.200042
0.0479223
0.0499402
0.129483
0.139175
0.139885
0.19529
0.169536
0.128162
0.193965
0.0627657
0.18565
0.0537457
0.165007
0.164573
0.124581
0.120306
0.199163
0.186606
0.185688
0.181671
0.145274
0.121406
0.203053
0.113751
0.192361
0.201923
0.183459
0.0539777
0.188111
0.190271
0.184403
0.136658
0.0117154
0.201145
0.153781
0.203202
0.0244683
0.20521
0.0634797
0.161737
0.152307
0.059028
0.183106
0.200714
0.0701283
0.0766434
0.0635
0.143075
0.0781424
0.0907663
0.0584167
0.125482
0.197707
0.199986
0.163197
0.0441021
0.0469755
0.0999595
0.162555
0.19484
0.202338
0.202508
0.121275
0.169722
0.0600817
0.062246
0.0641475
0.205157
0.189751
0.178376
0.191364
0.200115
0.200114
0.172364
0.174061
0.116266
0.117964
0.074965
0.179443
0.197963
0.197911
0.19959
0.0570222
0.164205
0.163683
0.194343
0.161187
0.0432101
0.162567
0.181268
0.12442
0.194865
0.19059
0.123322
0.153707
0.068365
0.087718
0.133795
0.131463
0.111122
0.154885
0.195914
0.19375
0.00767293
0.158458
0.0772567
0.179601
0.199318
0.201363
0.200248
0.0327504
0.189278
0.0506696
0.195281
0.200567
0.200212
0.107267
0.129205
0.157236
0.197187
0.107818
0.195927
0.204694
0.128651
0.129389
0.171675
0.192354
0.203503
0.204511
0.175599
0.14051
0.0453719
0.0487339
0.18917
0.198072
0.122214
0.2041
0.200549
0.200606
0.181544
0.201324
0.118414
0.118133
0.200569
0.17071
0.193448
0.0567624
0.174502
0.094992
0.148171
0.147353
0.0906221
0.202036
0.122663
0.193749
0.193174
0.190259
0.189743
0.196949
0.196897
0.124235
0.204335
0.188526
0.199544
0.156308
0.194406
0.173208
0.171873
0.130083
0.197097
0.0396353
0.0469232
0.0907814
0.116031
0.119698
0.175748
0.177947
0.178139
0.186868
0.145506
0.166282
0.15641
0.133201
0.189352
0.199742
0.200883
0.0897566
0.0736961
0.170043
0.0884686
0.0564946
0.181621
0.124518
0.177277
0.0996101
0.184494
0.190452
0.0141983
0.14325
0.0169738
0.0562979
0.193808
0.173288
0.143601
0.1457
0.200355
0.186984
0.187196
0.189005
0.199776
0.145733
0.200768
0.195595
0.194787
0.197899
0.14693
0.200188
0.195529
0.200506
0.198689
0.116377
0.00159853
0.200948
0.177485
0.167035
0.181112
0.192777
0.157039
0.105704
0.162163
0.163714
0.0990211
0.148977
0.199134
0.121141
0.183429
0.129235
0.126404
0.163091
0.0590182
0.125564
0.0718295
0.160871
0.152449
0.099972
0.19836
0.119441
0.199322
0.178992
0.123604
0.147801
0.203834
0.0540106
0.19971
0.168082
0.188422
0.184211
0.182096
0.152469
0.152579
0.195331
0.1217
0.122611
0.203928
0.0453496
0.185777
0.199788
0.173012
0.168708
0.193911
0.201982
0.072712
0.202015
0.19615
0.165517
0.167207
0.180256
0.170901
0.19535
0.154171
0.0450402
0.188134
0.188165
0.190704
0.135766
0.164556
0.186107
0.197726
0.199839
0.199698
0.185406
0.00564776
0.198137
0.19864
0.167777
0.0684165
0.189586
0.191798
0.097446
0.195028
0.0987408
0.100352
0.175427
0.200182
0.112105
0.133105
0.136628
0.0301636
0.18535
0.185092
0.200335
0.14205
0.116672
0.0451648
0.181526
0.195648
0.0135811
0.161525
0.200893
0.173884
0.203227
0.0908521
0.202395
0.197847
0.173471
0.172613
0.10609
0.0934907
0.132696
0.199936
0.139284
0.127546
0.104687
0.168877
0.101991
0.196561
0.0794411
0.170531
0.176139
0.175325
0.157448
0.0935669
0.0789568
0.155461
0.154298
0.153961
0.199435
0.0944009
0.170947
0.19365
0.131022
0.0283874
0.036942
0.0575027
0.0927001
0.181993
0.178808
0.178199
0.186661
0.0639938
0.19071
0.191479
0.14597
0.10728
0.154821
0.202214
0.0323156
0.196131
0.138747
0.204723
0.131054
0.109972
0.144864
0.11716
0.18675
0.0150504
0.189851
0.140407
0.180866
0.197627
0.185073
0.197287
0.105566
0.0817936
0.202282
0.179172
0.0701793
0.170952
0.0335667
0.179574
0.0797466
0.199801
0.19988
0.195589
0.146842
0.112772
0.108799
0.158443
0.158182
0.190151
0.122252
0.199131
0.191894
0.184415
0.059476
0.199897
0.0791817
0.187832
0.188039
0.0867812
0.018337
0.168651
0.135659
0.136931
0.175249
0.200077
0.0640725
0.194182
0.18979
0.119392
0.177518
0.1933
0.129902
0.201022
0.181741
0.181627
0.187229
0.196744
0.0841186
0.174365
0.200373
0.180046
0.0976958
0.199469
0.183723
0.19339
0.190608
0.158089
0.19968
0.115461
0.198859
0.186334
0.0945432
0.160991
0.195424
0.199503
0.0390244
0.0409903
0.198321
0.147231
0.14965
0.162488
0.165352
0.156199
0.202057
0.162113
0.114831
0.100231
0.156089
0.0439739
0.0121705
0.201034
0.0678898
0.0691561
0.196281
0.197331
0.041961
0.0818997
0.17735
0.142238
0.139915
0.155959
0.17243
0.173641
0.115423
0.18135
0.174593
0.118102
0.145453
0.155021
0.191296
0.0571112
0.182127
0.0523763
0.191333
0.0151012
0.193337
0.191937
0.123869
0.033521
0.118219
0.0943795
0.185943
0.188393
0.140074
0.198615
0.0463126
0.183766
0.187186
0.184106
0.183802
0.0386766
0.117484
0.201743
0.0727081
0.0991334
0.0880355
0.100858
0.0412775
0.194715
0.18568
0.195718
0.16336
0.202171
0.149782
0.183382
0.0327313
0.164506
0.200752
0.0927779
0.180838
0.104478
0.203487
0.203484
0.109691
0.18905
0.130561
0.197402
0.164451
0.200362
0.113769
0.18822
0.173184
0.0442136
0.132756
0.133618
0.0903302
0.188944
0.180571
0.0994364
0.129495
0.204975
0.189914
0.156574
0.175302
0.188622
0.200366
0.200757
0.191673
0.136719
0.203421
0.204743
0.165164
0.073156
0.0769237
0.201027
0.169963
0.199923
0.194301
0.198137
0.176199
0.194674
0.19776
0.167202
0.167865
0.187954
0.0400057
0.167565
0.144949
0.131865
0.126009
0.152951
0.152498
0.0337138
0.180936
0.189358
0.188723
0.163604
0.163185
0.180194
0.180321
0.159904
0.0924771
0.190916
0.0588446
0.149233
0.175511
0.194849
0.201837
0.0146328
0.172145
0.108529
0.194648
0.194529
0.07302
0.180452
0.137008
0.084651
0.186156
0.199314
0.0597215
0.188112
0.188119
0.19126
0.204047
0.190418
0.201191
0.202472
0.00583975
0.201028
0.107055
0.19484
0.145944
0.120451
0.053351
0.0586753
0.0221836
0.0415219
0.144963
0.0396237
0.18958
0.198868
0.19869
0.201631
0.1442
0.0482535
0.0457946
0.176501
0.0377936
0.116708
0.115885
0.190275
0.198839
0.149817
0.117565
0.197028
0.0790548
0.188314
0.193324
0.0385968
0.168188
0.0137535
0.0135032
0.126516
0.158652
0.205228
0.200848
0.178383
0.101032
0.103334
0.192834
0.192421
0.199743
0.05606
0.158099
0.094571
0.20088
0.165896
0.112722
0.157864
0.158799
0.175505
0.152508
0.204372
0.204922
0.0553851
0.053906
0.200127
0.0494658
0.189867
0.14756
0.187557
0.188676
0.106421
0.0708803
0.122387
0.0828339
0.124909
0.137467
0.193808
0.104425
0.196439
0.196013
0.0735262
0.200024
0.0485162
0.160164
0.200578
0.180414
0.175121
0.199606
0.201085
0.146183
0.103862
0.0990697
0.167012
0.132954
0.187473
0.129699
0.131981
0.201047
0.203409
0.163918
0.189943
0.202428
0.175114
0.106906
0.109827
0.191648
0.153942
0.205065
0.205149
0.0408932
0.0367883
0.0354582
0.0121868
0.0174314
0.202069
0.202344
0.182144
0.0748608
0.166553
0.0419414
0.16304
0.163092
0.17214
0.199247
0.0550399
0.19051
0.193731
0.194837
0.128127
0.161717
0.205101
0.185892
0.194604
0.128572
0.188985
0.111259
0.173976
0.194499
0.0223924
0.0176409
0.0470851
0.183159
0.0474908
0.200083
0.117141
0.116256
0.0517937
0.15939
0.10021
0.164403
0.146624
0.199435
0.0788751
0.180724
0.201768
0.0157729
0.168856
0.130849
0.181737
0.202208
0.190976
0.126684
0.195565
0.174494
0.12304
0.0258939
0.15142
0.197007
0.154204
0.161355
0.0271253
0.189843
0.189822
0.118025
0.178192
0.1095
0.109366
0.126097
0.188346
0.161294
0.161295
0.155088
0.198133
0.0151728
0.0151233
0.0548832
0.0532597
0.199392
0.199595
0.20374
0.144745
0.194245
0.106305
0.111933
0.188952
0.0633559
0.071474
0.135783
0.198522
0.165693
0.190713
0.183411
0.183039
0.143523
0.176394
0.165796
0.150665
0.150045
0.200923
0.195996
0.170872
0.168958
0.122921
0.199669
0.201873
0.17876
0.0326981
0.200031
0.171107
0.200664
0.193594
0.185081
0.198059
0.19912
0.187998
0.187044
0.204295
0.190768
0.105168
0.103606
0.156256
0.200182
0.0870207
0.132294
0.0469909
0.0512683
0.185286
0.199848
0.152468
0.11842
0.201437