/*--------------------------------*- C++ -*----------------------------------*\
  =========                 |
  \\      /  F ield         | OpenFOAM: The Open Source CFD Toolbox
   \\    /   O peration     | Website:  https://openfoam.org
    \\  /    A nd           | Version:  7
     \\/     M anipulation  |
\*---------------------------------------------------------------------------*/
FoamFile
{
    version     2.0;
    format      ascii;
    class       surfaceScalarField;
    location    "8";
    object      phi;
}
// * * * * * * * * * * * * * * * * * * * * * * * * * * * * * * * * * * * * * //

dimensions      [0 3 -1 0 0 0 0];

internalField   nonuniform List<scalar> 
19623
(
-6.55873e-07
7.26734e-07
-7.08612e-08
7.88256e-07
-6.09696e-07
-1.7856e-07
2.31195e-07
-5.7129e-07
3.40095e-07
-6.64497e-07
6.54604e-07
9.89228e-09
-4.12067e-07
6.47003e-07
-2.34937e-07
-4.17273e-07
6.76993e-07
-2.59719e-07
2.86587e-07
-7.0386e-07
-1.32971e-07
-5.253e-07
6.5827e-07
-6.3368e-07
4.52352e-07
1.81328e-07
8.30531e-07
-4.57628e-07
-3.72903e-07
6.68475e-07
1.62056e-07
-8.31509e-08
-4.147e-07
4.97851e-07
-4.61866e-07
7.46358e-07
-2.84492e-07
-2.32384e-07
5.97925e-07
-3.6554e-07
7.76797e-07
-5.3745e-07
-2.39347e-07
7.16438e-07
-3.26478e-07
-3.8996e-07
5.90675e-07
-7.1132e-07
1.20644e-07
3.87652e-07
2.37348e-07
3.34208e-07
3.54168e-07
-6.88376e-07
5.89614e-07
-2.55406e-07
-7.75107e-07
4.84682e-07
2.90424e-07
-5.80661e-07
-1.68403e-07
7.49064e-07
-5.62861e-07
-9.50507e-09
5.72366e-07
-8.17807e-07
4.75275e-07
3.42532e-07
6.27763e-07
-6.31752e-07
3.98925e-09
-4.90521e-08
6.76815e-07
-6.74685e-07
5.57238e-08
6.18961e-07
-3.35225e-07
-4.82583e-07
-4.56113e-07
3.72962e-07
-1.35564e-07
-5.33905e-07
6.69468e-07
-6.47823e-07
5.12259e-07
-2.56625e-07
6.4552e-07
-3.88895e-07
-6.87705e-07
5.92184e-07
9.55212e-08
3.54907e-07
1.66922e-07
-5.21828e-07
6.6361e-07
-3.08703e-07
5.09537e-07
2.67261e-07
6.90128e-07
-3.90874e-07
-2.99254e-07
-2.3661e-07
6.44122e-07
-4.07512e-07
-6.90296e-07
3.76673e-08
6.52629e-07
-7.13596e-07
3.89115e-07
3.24481e-07
2.5767e-07
3.64098e-07
-6.21768e-07
-2.46191e-07
5.0386e-07
2.6565e-07
-6.39527e-07
3.73877e-07
4.86599e-07
-7.04495e-07
2.17896e-07
3.70838e-07
3.15522e-07
-6.8636e-07
6.09207e-07
-6.96465e-07
8.72585e-08
8.04494e-07
-3.77861e-07
-4.26633e-07
-2.34086e-07
6.45517e-07
-4.11431e-07
4.28122e-07
-6.62208e-07
7.48261e-07
-4.65257e-07
-2.83004e-07
4.73813e-07
-6.49759e-07
1.75946e-07
-4.54169e-08
5.19229e-07
-2.29311e-07
6.36188e-07
-4.06878e-07
3.47339e-08
4.88769e-07
-5.23503e-07
7.37441e-07
-7.08569e-08
-6.66585e-07
4.041e-08
-5.0414e-07
4.6373e-07
4.6502e-07
-6.62648e-07
1.97627e-07
-6.27522e-07
5.7714e-07
5.03819e-08
3.20457e-07
4.16984e-07
5.72639e-07
-7.56494e-07
1.83855e-07
7.23132e-07
-6.34382e-07
-8.87499e-08
2.36238e-08
-5.26261e-07
5.02637e-07
-7.11148e-07
2.67563e-07
4.43585e-07
-5.02545e-07
-2.34754e-07
7.373e-07
3.64264e-07
-6.8786e-07
3.23596e-07
7.32333e-07
-3.68069e-07
4.25202e-07
2.91237e-07
6.61503e-07
-5.6302e-07
-9.84828e-08
-5.551e-07
1.43033e-07
7.75869e-07
-4.54736e-07
-3.21134e-07
4.50242e-07
7.85981e-08
-5.2884e-07
4.82409e-07
1.70254e-07
-6.52662e-07
7.36312e-07
-7.36312e-07
5.04318e-07
1.57185e-07
5.37269e-07
1.17342e-07
-6.5461e-07
-4.19496e-07
6.39627e-07
-2.20131e-07
4.05654e-07
1.9936e-07
-6.05013e-07
5.21099e-07
-4.55545e-08
-4.75544e-07
-3.69398e-07
6.35016e-07
-2.65618e-07
-6.77487e-07
3.08089e-07
-5.93845e-07
-1.3988e-07
7.33725e-07
3.34154e-08
-5.79266e-07
5.45851e-07
7.10477e-07
-9.67632e-08
-6.13714e-07
1.19666e-07
5.90811e-07
5.02406e-07
3.48624e-08
7.87183e-07
-6.34001e-07
-1.53182e-07
2.53231e-07
5.33953e-07
-6.56059e-07
1.16851e-07
5.39207e-07
7.4558e-07
-3.01116e-08
-7.15469e-07
1.70843e-07
5.74738e-07
3.4997e-07
-6.10702e-07
2.60733e-07
5.47873e-07
-4.44259e-07
-1.03614e-07
7.54452e-07
-6.34221e-07
-1.20231e-07
4.72646e-07
2.81806e-07
3.41306e-07
2.22593e-07
-5.63899e-07
-1.66109e-07
5.64812e-07
-3.98702e-07
-5.20263e-07
-6.25899e-08
5.82853e-07
-3.73711e-07
-3.13994e-07
3.50489e-07
-5.16599e-07
3.914e-07
2.79115e-07
-6.70515e-07
6.26479e-07
-2.3508e-07
-4.00136e-09
5.92695e-07
-5.88694e-07
-1.24507e-07
5.43316e-07
-4.18809e-07
5.29149e-07
1.42264e-07
-6.71413e-07
-6.39519e-07
1.35373e-07
5.04146e-07
-6.21076e-08
3.84087e-07
-3.21979e-07
-5.53808e-07
6.09192e-08
4.92889e-07
-1.24014e-07
6.42363e-07
-5.18349e-07
1.06884e-07
-5.2638e-07
-6.90296e-07
-5.2713e-07
-3.87374e-08
5.65868e-07
-3.44995e-07
6.80048e-07
-3.35053e-07
2.88708e-07
-6.33703e-07
2.25656e-07
-5.44757e-07
3.19101e-07
-4.88485e-07
3.63978e-07
-1.37573e-07
-4.56719e-07
5.94292e-07
-3.80386e-07
4.1512e-07
6.84642e-07
-4.94267e-07
-1.90375e-07
5.46984e-07
-1.54368e-09
-5.45441e-07
3.02209e-07
-5.3725e-07
2.3504e-07
-2.67512e-07
5.69722e-07
-6.93098e-07
6.93098e-07
-8.87871e-08
6.43392e-07
-5.54605e-07
1.20584e-07
4.80964e-07
-6.01548e-07
4.35719e-07
-6.58815e-07
2.23096e-07
6.56354e-07
-2.20634e-07
-4.91335e-07
-2.83772e-07
4.51104e-07
1.85239e-07
-6.36344e-07
1.25879e-07
3.86434e-07
-5.12313e-07
5.52314e-07
-8.72931e-08
-5.01108e-07
-1.24082e-07
-4.88371e-07
-1.36739e-07
5.7077e-07
8.38894e-08
-6.54659e-07
-7.02915e-07
5.69893e-07
1.33022e-07
-3.37925e-07
5.63581e-07
3.69749e-07
-6.75521e-07
3.05772e-07
5.97324e-07
-1.91671e-07
2.24353e-07
4.32438e-07
-6.56791e-07
4.40593e-07
1.90509e-07
-6.31102e-07
-2.01361e-07
5.42667e-07
-4.89137e-07
-8.9589e-08
-5.44412e-07
-6.57905e-07
5.68316e-07
-4.20459e-07
-2.64184e-07
6.84643e-07
2.75605e-07
-6.96064e-07
-2.42612e-07
-3.95158e-07
6.37769e-07
-7.09067e-07
1.57774e-07
5.51293e-07
7.63002e-07
-5.64202e-07
-1.988e-07
-3.56946e-07
-1.90447e-07
5.47394e-07
7.25775e-07
1.46572e-08
-7.40432e-07
-1.33166e-07
-5.06335e-07
6.39501e-07
-4.99983e-07
-1.87877e-07
-5.50597e-07
5.06141e-08
-6.28123e-07
1.7201e-07
-6.39806e-07
7.36442e-07
-9.66366e-08
4.29099e-07
-3.88689e-07
-4.05353e-07
7.08321e-07
-3.02968e-07
4.92768e-07
-1.59947e-07
-3.32821e-07
2.07194e-07
5.81062e-07
5.05804e-07
1.09132e-07
-6.14936e-07
-2.20892e-07
7.26695e-07
3.81508e-07
-6.18117e-07
-5.82284e-07
3.18337e-07
2.63947e-07
-3.50611e-07
7.37106e-07
-3.86495e-07
3.75628e-07
2.95131e-07
-6.70759e-07
7.2868e-07
-3.5691e-07
-3.7177e-07
-1.34358e-07
-4.22016e-07
5.56374e-07
-5.02545e-07
5.46161e-07
1.82519e-07
-7.44028e-07
3.64298e-07
3.7973e-07
-5.58241e-07
-1.61644e-07
7.19885e-07
4.36339e-07
2.6612e-07
-7.02458e-07
6.79083e-07
-2.42744e-07
6.07657e-07
-1.57415e-07
5.99582e-07
-1.84294e-07
-4.15288e-07
4.97126e-07
3.34938e-08
-5.3062e-07
3.29957e-07
-6.5583e-07
3.25873e-07
5.34784e-07
-1.84814e-07
-4.55872e-07
-1.84238e-07
6.40109e-07
5.9933e-07
-4.73451e-07
-6.95644e-07
8.3775e-08
6.11869e-07
3.26206e-07
4.06715e-07
-7.32921e-07
4.05986e-07
2.19014e-07
6.96922e-07
-4.72568e-07
-7.72569e-07
2.86454e-07
4.86115e-07
1.48351e-07
-7.18492e-07
5.70141e-07
-5.09127e-07
6.57478e-07
-1.19741e-07
6.16867e-07
-4.97278e-07
6.12165e-07
-1.14887e-07
4.7454e-07
2.55385e-07
-7.29926e-07
2.66332e-07
-6.56847e-07
3.90515e-07
4.11009e-07
1.36864e-07
-5.86078e-07
6.05474e-07
-1.93957e-08
5.69668e-07
-7.04635e-07
1.34967e-07
5.47619e-07
-7.54255e-07
2.06637e-07
-8.61206e-08
5.24095e-07
-4.37975e-07
6.87189e-07
-3.60983e-07
-7.52976e-07
4.77086e-07
2.7589e-07
-3.18513e-07
7.18692e-07
-4.00179e-07
5.77682e-07
-7.24465e-07
1.46783e-07
-4.35742e-07
-9.07588e-08
5.26501e-07
1.99274e-07
-7.03932e-07
4.1823e-07
2.85703e-07
2.42003e-07
5.06258e-07
-6.04577e-07
4.67004e-07
-3.4576e-07
6.43173e-07
-2.97413e-07
-5.01981e-07
-2.70588e-07
-3.00286e-07
-3.25139e-07
-5.19247e-07
-4.70056e-08
5.66253e-07
-2.54348e-07
-2.66939e-07
5.21287e-07
-3.67687e-07
5.98882e-07
-3.01274e-07
-3.24194e-07
3.82826e-07
2.78104e-07
-6.6093e-07
-8.16609e-07
4.87733e-07
3.28875e-07
-7.1724e-07
7.1724e-07
2.83876e-08
-4.92625e-07
4.64237e-07
-4.7926e-07
2.22452e-08
4.57015e-07
-7.15753e-07
1.96505e-07
-5.51927e-07
-1.93638e-08
-4.92458e-07
-1.32649e-07
-1.90929e-07
5.61767e-07
-1.22136e-07
-4.2942e-07
5.51556e-07
-1.38502e-07
-1.37505e-07
5.78099e-07
-7.34449e-07
5.77365e-07
1.57084e-07
7.62381e-07
-7.2253e-08
4.98372e-07
-1.17875e-07
-3.80497e-07
6.67753e-07
-2.80101e-07
7.24095e-07
-5.20331e-07
-2.03764e-07
-1.84254e-07
-5.2101e-07
7.05264e-07
6.46009e-07
-5.72633e-07
-7.33752e-08
-7.33944e-07
5.32583e-07
-8.36229e-08
-6.50321e-07
3.25404e-07
-5.57788e-07
1.45637e-07
-6.01508e-07
-2.44037e-07
-4.30649e-07
-4.80518e-07
7.46168e-07
2.66275e-07
3.34876e-07
-6.0115e-07
-4.29935e-07
6.9621e-07
1.27101e-07
4.65082e-07
6.87693e-07
-1.24332e-07
-5.63361e-07
-1.3269e-07
8.20382e-07
-2.29998e-07
-4.0989e-07
6.39888e-07
8.57497e-07
-5.99605e-07
-2.57893e-07
4.81241e-07
3.76257e-07
6.71805e-07
-7.38797e-08
4.66247e-07
-7.83609e-07
3.17362e-07
5.78675e-07
-1.12428e-07
5.89975e-07
-7.91363e-07
2.01388e-07
-6.30605e-07
6.44965e-07
-1.43603e-08
4.63154e-07
1.08722e-07
-5.71876e-07
-6.81298e-07
4.96342e-08
6.31664e-07
7.27373e-07
-4.396e-07
-2.87774e-07
5.33626e-07
1.93747e-07
2.1711e-07
-6.09368e-07
3.92258e-07
2.60762e-07
2.96873e-07
-5.57635e-07
8.19494e-08
-5.00367e-07
4.18417e-07
-6.34537e-07
1.33429e-07
-6.21694e-07
1.33323e-07
2.52324e-07
3.77142e-07
-6.29467e-07
-7.9244e-07
5.02872e-07
2.89568e-07
3.83057e-07
-5.54539e-07
1.71482e-07
6.34641e-07
-7.60889e-07
1.26249e-07
-4.1763e-07
-2.0398e-07
6.2161e-07
6.14565e-07
-3.68825e-08
-4.78976e-07
-1.2683e-07
6.05806e-07
2.80436e-07
3.11245e-07
-5.53856e-07
6.80452e-07
1.04293e-09
-6.81495e-07
-2.62285e-07
-2.15405e-07
4.7769e-07
6.71148e-07
-3.69627e-07
-3.01521e-07
4.80616e-07
1.90532e-07
2.58274e-07
4.78038e-07
7.15866e-08
5.05153e-07
-5.7674e-07
6.0101e-07
1.04931e-08
-6.11503e-07
-4.66277e-07
6.77556e-07
-2.11279e-07
-5.06134e-07
7.52261e-07
-2.46126e-07
9.71152e-08
-6.03249e-07
5.44609e-07
2.3126e-07
2.98106e-07
2.56295e-07
-5.54401e-07
3.61696e-07
-6.23527e-07
2.61832e-07
-7.1359e-07
4.27101e-07
2.86489e-07
-2.82421e-07
-4.3117e-07
-3.04941e-08
5.59644e-07
-6.0073e-07
5.55715e-07
4.50146e-08
-6.70965e-07
4.11919e-07
2.59045e-07
-3.29907e-07
-3.41057e-07
5.80846e-07
3.13948e-08
-6.1224e-07
-2.48912e-07
-4.90687e-07
7.39598e-07
4.71496e-07
2.68761e-08
3.13529e-07
2.07569e-07
4.68847e-07
-6.76804e-07
2.07957e-07
-7.60236e-07
4.74541e-07
2.85695e-07
-5.06487e-07
5.861e-07
-7.96133e-08
-5.22496e-07
2.60211e-07
-5.71999e-07
6.32998e-07
-6.09984e-08
1.68871e-07
4.88009e-07
-6.56879e-07
6.93509e-07
-5.24638e-07
-7.01028e-08
-5.57383e-07
6.27486e-07
-6.02225e-07
5.32122e-07
5.87318e-07
-3.27856e-07
-2.59462e-07
-5.07241e-07
-1.05691e-07
6.12932e-07
6.84832e-07
-5.28657e-07
-1.56175e-07
5.2867e-07
1.56162e-07
-4.45542e-07
-2.21954e-07
6.67496e-07
6.01117e-07
-1.08348e-07
6.29928e-07
-5.34834e-07
-9.50934e-08
-4.87435e-07
7.07741e-07
-2.20307e-07
-5.48166e-07
-1.16331e-07
-1.64267e-08
6.03745e-07
-6.46226e-07
4.54963e-08
7.0675e-07
-4.36714e-07
-2.70037e-07
6.55949e-07
-7.62388e-07
1.0644e-07
-5.65825e-07
5.72631e-07
-6.80658e-09
6.16745e-07
-2.10758e-07
5.19626e-07
-6.08413e-07
7.23649e-07
-2.04023e-07
-7.45123e-07
-7.14861e-08
-1.77049e-07
-5.79329e-07
7.56377e-07
2.38006e-07
-6.89041e-07
4.51034e-07
-2.9774e-07
5.86334e-07
-2.88595e-07
2.50383e-07
-6.149e-07
3.64517e-07
7.8928e-07
-2.14144e-07
-5.75136e-07
1.87779e-07
6.01501e-07
-1.27982e-07
5.9202e-07
-4.64038e-07
5.40764e-07
-7.45142e-07
2.04378e-07
-4.57425e-07
6.63694e-07
-2.06269e-07
6.10361e-07
-6.81119e-07
7.07581e-08
-3.96072e-07
-1.45329e-07
5.41402e-07
6.2966e-08
6.62809e-07
7.87484e-07
-4.65037e-07
-3.22447e-07
2.50034e-07
5.4571e-07
-9.90166e-08
-4.46693e-07
4.21768e-07
1.23942e-07
-5.38952e-07
1.86886e-08
-3.39779e-07
6.94518e-07
-3.5474e-07
3.79566e-07
-7.19344e-07
-1.50387e-07
5.2254e-07
-3.72153e-07
4.49969e-07
2.56782e-07
4.00207e-08
4.80237e-07
-5.20258e-07
5.56925e-07
-2.58819e-07
-5.17942e-07
-1.93206e-07
6.72941e-07
-5.85417e-07
-8.75237e-08
6.99243e-07
-6.43475e-08
-6.34895e-07
5.58608e-08
6.43382e-07
5.95243e-07
-2.81714e-07
7.09412e-07
-3.73898e-07
-3.35514e-07
6.24872e-07
8.45401e-08
-1.12243e-07
5.28247e-07
-4.16004e-07
-3.49312e-07
6.84919e-07
-3.35608e-07
-6.66484e-07
3.17172e-07
-6.38e-07
5.03642e-07
4.64566e-07
2.98435e-07
6.11927e-07
-5.81033e-07
-3.08943e-08
1.01025e-07
5.10902e-07
4.42256e-07
-6.6212e-07
2.19864e-07
-1.25983e-07
5.16116e-07
-3.90134e-07
-4.88492e-07
3.6251e-07
1.10633e-07
4.90378e-07
-6.91079e-07
5.70719e-07
1.2036e-07
-6.70043e-07
5.16792e-07
1.53251e-07
-7.4575e-07
3.23734e-07
3.52589e-07
-5.98517e-07
2.45929e-07
5.83434e-07
4.38629e-07
1.87022e-07
-6.25651e-07
6.39324e-09
6.02813e-07
7.66938e-08
5.13982e-07
2.75176e-07
3.18069e-07
-5.93245e-07
-4.53876e-07
7.29052e-07
3.70871e-07
-4.56992e-07
7.39754e-07
-5.45623e-07
-1.94131e-07
1.00479e-07
-5.93746e-07
4.93267e-07
6.02266e-07
-5.20316e-07
-6.69491e-07
5.54038e-07
1.15454e-07
4.01863e-07
1.17009e-07
-5.18872e-07
6.71762e-07
-6.22757e-07
-4.90049e-08
-3.69315e-08
4.64033e-07
7.76686e-07
-4.1579e-07
-3.60896e-07
-6.65044e-07
1.72586e-07
-6.49796e-07
-9.11684e-08
7.40964e-07
5.54647e-07
-7.66278e-09
2.74796e-07
4.50257e-07
-7.25053e-07
7.03878e-07
-1.56259e-07
6.93179e-07
-2.83785e-07
-4.09394e-07
3.67863e-07
-5.9784e-07
2.29977e-07
2.16656e-07
-6.12728e-07
-4.95403e-07
-7.03398e-07
5.59642e-07
1.43756e-07
6.87001e-07
-4.40504e-07
-2.46497e-07
2.42741e-07
3.36956e-07
-5.79697e-07
7.25031e-07
-3.119e-07
-4.13132e-07
-7.91831e-07
3.65412e-07
4.26419e-07
-4.53741e-07
-3.38089e-07
-5.51161e-07
-1.72662e-07
7.23823e-07
-6.47925e-07
6.98414e-07
-2.89306e-07
-4.09108e-07
1.14003e-07
6.25751e-07
5.19609e-07
-4.86194e-07
-4.81424e-08
-4.4726e-07
7.4525e-08
-5.0446e-07
-4.21313e-07
-1.86043e-07
6.07356e-07
-6.17825e-07
1.96512e-07
7.8956e-07
-3.56359e-07
-4.33202e-07
-5.40621e-07
-1.37634e-07
6.78255e-07
-4.87121e-07
5.61646e-07
4.96253e-07
-6.97733e-07
2.0148e-07
5.78826e-07
-1.95769e-07
-5.19757e-07
7.3826e-07
-2.18503e-07
9.79408e-08
-5.55366e-07
6.9361e-07
-3.36941e-07
-3.56669e-07
6.7865e-07
1.49597e-08
-5.15325e-08
5.20973e-07
-4.69441e-07
7.55303e-07
-3.88202e-07
-3.67102e-07
3.30587e-07
2.19605e-07
-5.50192e-07
5.55134e-07
-1.53985e-07
-4.01149e-07
-1.33001e-07
5.75256e-07
-7.88678e-07
2.56708e-07
5.31971e-07
4.68249e-07
1.73497e-08
-4.85599e-07
-9.63529e-08
6.15279e-07
-5.18926e-07
2.03024e-07
-5.59934e-07
-1.27408e-08
-6.26778e-07
6.46868e-07
-4.79817e-08
-5.98886e-07
-1.33975e-08
6.60265e-07
7.25224e-07
-3.8202e-07
-3.43203e-07
3.01061e-07
4.75625e-07
6.27395e-07
-6.10146e-07
-1.72492e-08
-7.45204e-07
3.07309e-07
4.37895e-07
-5.60324e-07
5.60324e-07
-6.88742e-07
3.43219e-07
3.45523e-07
-6.6621e-07
2.60857e-07
-6.1456e-07
7.14672e-07
-1.00113e-07
-3.54924e-08
-4.6884e-07
5.04333e-07
1.43504e-07
4.97009e-07
-6.40513e-07
-3.72915e-07
5.08288e-07
2.89169e-07
-7.34711e-07
1.55856e-07
-7.18717e-07
5.43147e-07
-7.18639e-07
1.75492e-07
-8.17892e-07
1.83671e-07
-3.94371e-07
7.12715e-07
-3.18344e-07
6.26929e-07
-6.25511e-07
-1.41829e-09
-3.97522e-07
7.827e-07
-3.85178e-07
-3.75998e-07
-4.56231e-07
3.05844e-07
5.77508e-07
-1.30041e-07
-4.47466e-07
-6.30128e-07
5.81289e-08
7.20445e-07
-7.20445e-07
-1.52374e-07
-4.64133e-07
6.16507e-07
-6.7501e-07
3.839e-07
2.9111e-07
1.70314e-07
-5.98322e-07
4.28009e-07
3.53971e-07
3.44443e-07
-7.24967e-07
2.63608e-07
4.61358e-07
-3.40938e-07
-3.84028e-07
-1.05752e-07
-4.70512e-07
5.76263e-07
-2.23212e-07
5.90558e-07
-3.67346e-07
-1.66296e-07
-3.52255e-07
5.1855e-07
-3.8723e-07
6.65816e-07
-2.78586e-07
5.01373e-07
2.29013e-07
-7.30386e-07
6.07243e-07
-1.28621e-07
-4.78622e-07
2.9677e-07
-5.26768e-07
6.10803e-07
1.90488e-07
-8.01291e-07
5.6362e-08
-5.10876e-07
4.54514e-07
-8.04724e-09
-4.37534e-07
4.45581e-07
6.43133e-07
-1.54364e-07
6.4219e-07
-1.60002e-07
-4.82187e-07
-1.4651e-07
-4.2771e-07
5.7422e-07
-5.71321e-07
-9.81702e-08
6.44696e-07
-1.76447e-07
3.44561e-07
-6.1884e-07
2.74279e-07
1.40308e-07
4.42261e-07
-5.82568e-07
5.80709e-07
-4.40402e-07
-2.9128e-07
5.43605e-07
7.22829e-07
-2.37485e-07
-4.85344e-07
-4.53888e-07
-3.46478e-07
-3.56437e-07
3.05716e-07
-7.03238e-07
-6.52811e-07
2.95865e-07
-6.05477e-07
5.59366e-07
4.61106e-08
-4.32937e-07
-2.19874e-07
1.65913e-07
4.31411e-07
6.30444e-07
-4.64531e-07
1.38861e-07
4.68382e-07
8.16133e-07
-2.72817e-07
1.74861e-07
3.95909e-07
-8.34804e-08
-3.55727e-07
4.39207e-07
8.16755e-07
-6.04897e-07
-2.11858e-07
-6.22989e-07
-1.29987e-07
-5.03821e-07
5.53741e-07
-4.99195e-08
5.26052e-07
-2.75669e-07
-5.99792e-07
4.75778e-07
8.52605e-08
5.60748e-07
-1.76183e-07
6.09288e-07
-4.33105e-07
-2.23385e-07
-2.54992e-07
4.78377e-07
-5.40888e-07
7.46396e-07
-2.05508e-07
-6.79137e-07
2.61506e-07
-6.14858e-07
1.13092e-07
5.01766e-07
2.40659e-07
-5.59171e-07
-3.53122e-07
-2.95516e-07
6.48639e-07
-2.46277e-08
4.49829e-07
-5.98708e-07
6.50648e-07
-5.19393e-08
-5.72264e-07
6.44139e-07
-7.18755e-08
-5.10101e-07
3.64883e-07
-5.88268e-07
5.92861e-07
4.71246e-08
-6.39986e-07
-2.48674e-07
-4.68566e-07
-3.71126e-07
-2.31755e-07
6.02882e-07
5.35658e-07
-5.81213e-07
7.88743e-07
-2.25616e-07
-5.63128e-07
3.1978e-07
-5.55911e-07
2.36131e-07
-2.42117e-07
6.54036e-07
-7.51596e-07
5.09479e-07
-2.54683e-07
-3.60175e-07
2.73271e-07
2.45281e-07
-5.18552e-07
1.17431e-08
-5.18984e-07
-6.08242e-07
7.55782e-07
-1.47539e-07
5.80156e-07
-5.79873e-08
-5.22168e-07
-7.78519e-07
7.57842e-07
2.0677e-08
-3.8982e-07
6.92906e-07
-3.03086e-07
6.00478e-07
-5.11988e-07
-8.84904e-08
-4.23957e-08
-4.98492e-07
-4.65993e-07
3.53751e-07
-5.11758e-07
6.40758e-07
-1.29e-07
1.86527e-07
-6.98284e-07
-5.0333e-07
-4.8621e-08
5.51951e-07
8.18068e-07
-6.07052e-07
-2.11016e-07
5.23558e-07
2.9451e-07
2.98994e-07
-5.43266e-07
2.44272e-07
1.32852e-07
-4.8287e-07
3.50018e-07
-6.58201e-07
2.29548e-08
6.35246e-07
-3.59766e-07
6.07807e-07
-2.48041e-07
2.50123e-07
-6.09888e-07
3.16535e-07
-6.51299e-07
3.34764e-07
3.54185e-07
-4.50538e-07
5.38589e-07
2.6429e-08
-5.65018e-07
6.04674e-07
-5.20287e-07
-8.43865e-08
-4.36887e-07
-1.50016e-07
5.86903e-07
-7.53791e-07
3.16904e-07
5.09203e-09
-4.7532e-07
4.70228e-07
6.54203e-07
-2.32647e-08
-6.30938e-07
6.3484e-07
1.93626e-08
-1.64116e-07
-4.49598e-07
3.57433e-07
3.02239e-07
-6.59672e-07
5.80902e-07
-2.19207e-07
6.66823e-07
-2.60108e-07
-1.37505e-07
5.39368e-07
2.97164e-07
4.5814e-07
4.27931e-07
-6.80137e-07
6.13708e-08
6.18767e-07
6.01592e-07
-6.05593e-07
-5.56511e-08
-5.64989e-07
6.2064e-07
-7.81554e-08
-5.80045e-07
1.15018e-07
5.01157e-07
-6.16175e-07
-5.62431e-07
6.7745e-07
5.85673e-07
-3.87894e-07
-1.97779e-07
4.09505e-07
1.76168e-07
5.0464e-07
7.24894e-09
-5.11889e-07
5.77358e-07
1.47866e-07
5.49216e-07
-6.39362e-07
9.01458e-08
-5.9918e-07
4.32884e-07
1.52675e-07
-6.79805e-07
-1.72166e-07
-5.20932e-07
6.48499e-07
-7.58602e-08
-6.169e-07
6.46665e-07
-2.97651e-08
5.55525e-07
-3.98531e-07
-1.56994e-07
5.8563e-07
2.03113e-07
7.45119e-07
-3.78463e-07
-3.66656e-07
-4.18118e-07
7.54384e-07
-3.36266e-07
5.81634e-07
-5.0855e-07
-7.30842e-08
3.16928e-07
3.49895e-07
-2.41868e-07
-4.21431e-07
6.63299e-07
4.37419e-08
-5.31177e-07
-5.23479e-07
7.93171e-07
-2.69692e-07
-5.75011e-07
-6.73023e-07
3.3428e-07
3.38743e-07
2.52375e-07
-7.24251e-07
4.71876e-07
1.72531e-07
4.31071e-07
-6.03602e-07
-1.07223e-07
-5.48649e-07
-6.61421e-07
2.24775e-07
4.36646e-07
7.57466e-08
-4.26358e-07
-1.77378e-07
4.97157e-07
-6.08332e-07
7.11958e-07
-1.03626e-07
5.95737e-07
-5.55716e-07
7.15884e-07
-3.09497e-07
-4.06387e-07
-1.73197e-07
-3.88514e-07
5.61711e-07
4.42082e-07
1.61442e-07
-6.3831e-07
5.39829e-07
9.84811e-08
3.85103e-07
-6.12987e-07
2.27884e-07
5.72882e-07
1.35443e-08
3.91286e-07
-4.0483e-07
-5.38609e-07
5.52153e-07
-5.27434e-07
4.43954e-07
8.93377e-07
-3.33184e-07
-5.60193e-07
-5.76762e-07
6.00956e-07
-2.41933e-08
6.32214e-07
-3.58944e-07
-5.93898e-07
-3.69492e-08
6.30847e-07
4.72228e-07
-5.99058e-07
6.16132e-07
1.07e-07
2.0629e-07
-5.9352e-07
4.80792e-07
1.92149e-07
3.41136e-07
-6.84779e-07
3.43643e-07
5.57486e-07
3.35891e-07
-4.46725e-07
-2.50702e-07
6.97427e-07
2.96446e-07
-7.43171e-07
6.71495e-07
-3.70434e-07
-5.75646e-08
-5.50678e-07
2.13867e-07
4.95878e-07
8.16303e-08
5.66868e-07
-1.84485e-07
-3.82383e-07
-2.11497e-07
4.72259e-07
4.10936e-07
5.75143e-08
-4.6845e-07
-2.72877e-07
3.89729e-07
3.20002e-07
4.17104e-07
-5.94511e-07
-1.94168e-07
5.36726e-07
-9.83025e-08
-4.38424e-07
6.35506e-07
-4.87754e-07
-1.47752e-07
-6.96359e-07
2.30082e-07
-5.96938e-07
3.73305e-07
2.23633e-07
-5.06674e-07
-5.15663e-08
5.79895e-07
-2.43696e-08
2.24764e-07
2.8037e-07
-5.05134e-07
-6.39603e-07
6.39603e-07
-1.97163e-07
5.72791e-07
-5.23667e-07
-1.87652e-07
8.626e-07
-5.63026e-07
-2.99574e-07
7.08503e-07
1.54097e-07
-4.26819e-08
-3.89372e-07
-2.72048e-07
3.77552e-07
1.65868e-07
-5.4342e-07
5.84595e-07
-3.5379e-08
-5.5993e-07
5.62451e-07
-2.5207e-09
3.52557e-08
-5.95186e-07
5.64451e-07
-7.43672e-07
1.79222e-07
-8.79548e-08
-5.4265e-07
4.40215e-07
-6.26628e-08
-4.45262e-08
-5.49371e-07
1.28668e-08
6.14528e-07
4.19249e-07
-3.62887e-07
3.74153e-07
2.42139e-07
-6.16292e-07
7.43911e-07
-4.18507e-07
6.75989e-07
-4.48867e-07
-2.27122e-07
2.7887e-07
5.37885e-07
-2.21969e-07
-4.51054e-07
7.09231e-07
-4.9452e-07
-2.14711e-07
1.96448e-07
-4.53073e-07
-6.14639e-07
4.96758e-07
1.17881e-07
6.16262e-07
1.76909e-07
8.2501e-08
4.51135e-07
-5.33636e-07
6.62936e-07
-2.88767e-07
-3.74169e-07
1.27626e-07
-5.0426e-07
3.76633e-07
1.94206e-07
3.67557e-07
-5.61763e-07
5.85473e-07
-3.91267e-07
6.25029e-08
6.07697e-07
-6.70199e-07
-6.65629e-07
1.25008e-07
5.33778e-07
1.20826e-07
-4.32996e-07
-2.37047e-07
5.2134e-07
-3.51027e-07
6.39192e-07
-4.20036e-07
-2.19157e-07
7.25554e-07
-4.284e-07
-9.43667e-08
5.22767e-07
-6.74394e-07
6.60997e-07
6.82645e-07
-8.30628e-08
-5.29123e-07
6.87109e-07
-1.57986e-07
-5.57894e-07
3.93778e-07
7.33724e-07
-5.07131e-07
-2.26592e-07
5.76502e-07
1.57222e-07
7.03105e-07
-5.14243e-07
-1.88862e-07
2.07359e-07
4.95746e-07
-6.5062e-07
6.5062e-07
5.50136e-07
-1.82274e-07
-5.50979e-07
-2.27396e-07
7.78376e-07
6.78559e-07
-4.33277e-07
-4.95745e-07
-1.37934e-07
-7.78179e-07
2.13422e-07
5.64757e-07
6.42479e-07
-2.89569e-10
-4.20028e-07
4.11981e-07
-4.09625e-07
5.55262e-07
-5.51675e-07
-2.75912e-08
3.74134e-07
3.26845e-07
-7.00979e-07
1.39402e-07
-6.18662e-07
1.88211e-07
3.45567e-07
-3.54775e-07
5.42987e-07
4.49252e-07
-4.4416e-07
-2.2584e-07
5.95589e-07
1.16617e-07
-5.45017e-07
7.16207e-07
-2.20303e-07
-4.95904e-07
-6.60621e-07
7.42674e-08
5.86353e-07
-9.84075e-08
-5.62213e-07
-3.13005e-07
4.84251e-07
-1.71246e-07
2.89652e-07
3.82877e-07
-6.72529e-07
7.3163e-07
-4.41979e-07
3.0815e-07
3.34072e-07
-6.42222e-07
9.13967e-10
-5.36341e-07
5.35427e-07
7.28884e-07
-1.81754e-07
-5.4713e-07
-4.01213e-08
7.69005e-07
7.3367e-07
-1.87257e-07
-5.46413e-07
-3.86547e-07
4.67471e-07
-3.34619e-07
-5.97587e-07
3.4561e-08
-1.40033e-08
-5.05753e-07
6.8188e-07
-5.94381e-07
-8.74991e-08
-5.16056e-07
6.01609e-07
-8.55528e-08
-5.60666e-07
-5.6234e-08
-8.09487e-08
4.30914e-07
-3.49966e-07
4.08895e-07
-4.71003e-07
6.09901e-07
-6.79662e-07
6.97615e-08
7.19155e-07
-1.09254e-07
4.11902e-07
2.23603e-07
-6.16686e-07
4.9455e-07
5.87766e-07
1.21474e-07
-7.0924e-07
-5.77007e-07
5.03741e-07
7.32658e-08
7.75343e-07
-2.80595e-07
-4.94749e-07
4.02429e-07
6.31163e-07
-1.89823e-07
-4.4134e-07
-5.8571e-07
6.04916e-09
5.79661e-07
-4.91746e-07
4.11011e-07
3.93483e-07
1.1112e-07
5.64869e-07
8.52401e-08
4.26184e-07
-5.11425e-07
6.65313e-07
-5.12464e-07
-1.52849e-07
-6.79474e-07
4.06463e-07
2.73011e-07
-2.4111e-07
6.43365e-07
-4.02255e-07
-3.14793e-07
-3.15903e-07
6.30696e-07
-3.82314e-07
6.14159e-07
-2.31845e-07
-5.30558e-07
-3.12753e-08
5.61833e-07
-4.45651e-07
-2.98377e-07
-7.10298e-07
2.77704e-07
4.32594e-07
4.45943e-07
1.98989e-07
-6.44932e-07
-3.30705e-07
-4.59282e-07
7.89987e-07
3.16141e-07
-5.97647e-07
2.81506e-07
-4.45232e-07
7.88088e-07
-3.42856e-07
-5.80868e-07
5.79324e-07
5.85271e-07
-4.54157e-07
-1.31113e-07
-7.43315e-07
9.35194e-08
-4.9689e-07
-2.81629e-07
-4.05764e-07
5.06243e-07
-6.07765e-07
6.07765e-07
2.97679e-08
-6.381e-07
-1.55054e-07
-4.45411e-07
6.00466e-07
4.79786e-07
6.00271e-07
-3.75507e-07
2.79721e-07
2.60369e-07
-5.40091e-07
6.06372e-07
-3.2665e-07
6.67042e-07
-3.36454e-07
-7.84606e-07
5.4003e-07
2.44576e-07
2.11974e-07
-6.4343e-07
4.31456e-07
-6.92113e-07
2.81338e-07
4.10775e-07
-5.82337e-07
7.25389e-07
-1.43052e-07
-2.00473e-07
-3.06014e-07
3.30197e-07
3.56072e-07
-6.86269e-07
5.97196e-07
-6.60748e-07
6.35527e-08
-2.2646e-07
7.07424e-07
-6.72261e-07
-1.64803e-08
-5.31797e-07
-2.28439e-07
-5.72628e-07
7.03715e-07
-2.39785e-07
-4.6393e-07
7.49816e-08
4.02104e-07
-4.9705e-07
-1.4126e-07
-1.57432e-07
5.40224e-07
-3.82792e-07
5.76506e-08
-5.73707e-07
-2.54769e-07
6.0153e-07
-3.4676e-07
3.51388e-07
1.8872e-07
-5.40107e-07
5.80451e-07
5.87411e-08
6.88893e-07
-5.4252e-08
-6.03568e-07
4.99346e-07
1.04222e-07
-4.72973e-07
-2.51492e-07
-4.27423e-08
-4.0492e-07
4.47663e-07
-3.39169e-07
-1.64652e-07
-2.74794e-08
-4.42771e-07
4.7025e-07
-2.32981e-08
4.14004e-07
-3.90706e-07
5.64859e-07
-5.88157e-07
-5.32134e-07
4.14259e-07
-5.92883e-07
2.21756e-07
5.65276e-07
-2.20715e-07
-5.42626e-07
-2.29375e-07
7.72001e-07
1.56157e-07
-5.89153e-07
-6.69918e-07
-5.5516e-07
1.83247e-07
-4.96252e-07
-6.2575e-07
-6.98939e-08
5.29634e-07
-7.02892e-07
1.73257e-07
-1.01485e-08
5.50136e-07
-5.39987e-07
2.84898e-07
-6.29452e-07
3.44554e-07
-1.92957e-07
6.59829e-07
-4.66872e-07
4.65434e-07
-6.58391e-07
5.64415e-07
-6.9227e-07
1.27856e-07
-2.37246e-07
5.91894e-07
-3.54648e-07
4.00279e-07
-6.37525e-07
-1.57153e-07
6.03096e-07
-5.53793e-07
1.06533e-07
4.97386e-07
-5.78334e-07
-5.25648e-07
2.79027e-07
2.46621e-07
-5.06594e-07
-2.78012e-07
3.51418e-08
4.24703e-07
-4.59845e-07
-3.05477e-07
5.80105e-07
-2.74628e-07
4.96249e-08
4.20485e-07
-4.7011e-07
-1.22129e-07
-5.6895e-07
-6.54021e-07
2.20387e-07
4.33634e-07
-1.58218e-07
5.6784e-07
1.70408e-07
4.22076e-07
-5.92484e-07
7.06689e-07
-1.85716e-07
-4.353e-07
5.1919e-07
6.69726e-07
-3.17137e-07
-2.69776e-07
6.73281e-07
-4.03505e-07
3.57643e-07
3.08988e-07
-6.66631e-07
-4.75259e-07
-1.32506e-07
-2.62496e-07
5.925e-07
-3.30003e-07
5.7985e-07
1.42287e-07
-7.22137e-07
-6.83354e-07
1.12378e-07
5.70976e-07
-1.91573e-07
6.00433e-07
-4.08861e-07
-4.60215e-07
-3.57677e-07
3.49771e-07
-6.44576e-07
2.94805e-07
-2.53982e-07
-4.43752e-07
-4.32512e-07
7.21221e-07
8.10205e-08
4.05723e-07
-4.86743e-07
9.41075e-08
4.95868e-07
5.32757e-07
-4.50256e-07
6.58848e-07
-2.06441e-07
-4.52407e-07
7.35511e-07
-7.66629e-08
5.09981e-07
2.14115e-07
-2.59981e-07
5.66982e-07
-3.07001e-07
5.34717e-07
-6.19859e-07
8.51417e-08
9.4368e-08
4.40349e-07
-5.05505e-07
5.29128e-07
3.1654e-07
-4.15081e-07
-1.99558e-07
6.86262e-07
-2.03129e-07
-4.83133e-07
-3.13866e-07
-1.69332e-07
4.83198e-07
3.38507e-07
2.96502e-07
-6.35009e-07
1.79776e-07
-4.93642e-07
-1.73685e-07
5.56511e-07
-7.67278e-07
5.47618e-07
2.1966e-07
-2.81965e-07
-3.14973e-07
9.27221e-08
-6.69485e-07
7.00156e-07
-1.07295e-07
3.43166e-07
3.5699e-07
-4.36453e-07
-2.43021e-07
-3.32067e-07
6.56522e-07
-3.24456e-07
6.40149e-07
8.98803e-08
-7.30029e-07
-4.77459e-07
4.78373e-07
-2.43106e-07
-4.49007e-07
6.08302e-07
9.50115e-08
-7.03314e-07
6.87267e-07
-2.24113e-07
-3.7543e-08
4.67547e-07
-4.30004e-07
-5.30577e-07
4.93034e-07
-2.36954e-07
7.90695e-07
-6.25169e-07
1.79128e-07
4.46041e-07
2.74864e-07
-6.2716e-07
3.52296e-07
5.28118e-07
-4.48883e-09
-5.23629e-07
-2.83463e-07
-3.85736e-07
6.69198e-07
5.05093e-07
-3.35873e-08
-4.71506e-07
-4.27515e-07
3.71864e-07
4.64621e-07
2.31125e-08
7.04425e-07
-1.58327e-08
-6.88592e-07
-2.75132e-07
6.94604e-07
-4.19473e-07
-7.1385e-07
1.83292e-07
-5.34114e-07
2.93004e-07
6.72994e-07
-6.04968e-07
-6.80252e-08
-5.08795e-07
4.66053e-07
4.56202e-07
-6.46282e-07
1.90081e-07
-6.71181e-07
2.88867e-07
6.02998e-07
-2.94848e-07
-1.85453e-07
-4.52647e-07
6.381e-07
3.50758e-07
1.86884e-07
-5.37642e-07
-5.82707e-08
6.27938e-07
6.08373e-07
9.93682e-08
1.48687e-07
5.73487e-07
-7.22174e-07
2.35502e-07
-4.90271e-07
-5.6939e-07
2.00129e-08
5.49377e-07
-6.48755e-07
7.93644e-08
-6.31079e-07
6.96835e-07
-6.57566e-08
3.97881e-07
1.75636e-07
-5.73517e-07
-6.0994e-07
5.44198e-07
6.57419e-08
1.92247e-07
4.50886e-07
4.30132e-07
-6.42373e-07
2.1224e-07
3.43943e-07
3.29051e-07
-5.6176e-07
-1.9913e-07
-5.59265e-07
6.60843e-07
-1.01578e-07
2.26819e-07
3.60947e-07
-5.33791e-08
5.94143e-07
5.82744e-07
-1.14952e-07
-4.67792e-07
-2.73141e-07
-3.09143e-07
2.93233e-07
-5.90062e-07
2.96829e-07
-9.55159e-08
-3.33129e-07
7.83501e-07
-4.50373e-07
4.42555e-07
-6.47623e-07
2.05068e-07
3.55743e-07
-7.07997e-07
5.86156e-07
-2.30413e-07
5.50215e-07
-1.16256e-08
-5.10782e-07
5.96022e-07
-6.90113e-07
3.89649e-07
3.00464e-07
-5.85739e-07
5.5826e-07
7.08524e-07
-7.08524e-07
-5.13889e-07
-4.23695e-08
5.56258e-07
-3.87651e-07
6.78988e-07
-2.91337e-07
-3.68101e-07
6.83622e-07
6.49884e-07
-3.13957e-07
-3.35927e-07
4.33166e-07
3.11952e-07
-2.96526e-07
6.14271e-07
-3.17745e-07
6.50124e-07
-3.98136e-07
-2.51988e-07
-2.18631e-07
-3.40674e-07
5.59305e-07
3.44504e-07
2.80496e-07
-1.02878e-07
5.54013e-07
-2.511e-07
-4.26387e-07
5.21114e-07
-4.58611e-07
-1.07008e-07
-5.63689e-07
-1.45378e-07
2.8046e-07
4.39986e-07
-2.05855e-08
-5.78123e-07
6.0198e-07
-3.20867e-08
2.28015e-07
3.73965e-07
-6.5123e-07
3.91249e-07
6.91303e-08
-4.8475e-07
4.1562e-07
4.94424e-07
2.96716e-08
4.03756e-07
-6.86177e-07
-2.23999e-07
6.27755e-07
5.67571e-07
9.14434e-08
4.6193e-07
-5.53373e-07
-4.83862e-07
5.75305e-07
6.16316e-07
-5.62676e-07
-5.36392e-08
5.13608e-07
2.13126e-07
-7.12758e-07
-3.2992e-08
-3.53724e-07
-3.50209e-07
4.82073e-07
-4.91123e-07
9.05029e-09
-6.57605e-07
5.29622e-07
-1.32385e-07
5.32663e-07
5.48643e-07
-2.32723e-08
-5.25371e-07
-3.6764e-07
-3.99638e-07
-7.19519e-07
2.76749e-07
-6.22008e-07
1.42876e-07
4.79131e-07
-6.37381e-07
1.53739e-08
6.31789e-07
1.23323e-08
-5.51884e-07
2.64232e-07
2.87652e-07
-6.85591e-07
4.59959e-08
6.39595e-07
-5.66316e-07
1.5065e-07
4.15666e-07
-3.44328e-07
-3.68177e-07
7.12505e-07
-3.03936e-07
-4.74243e-07
3.15651e-07
3.20537e-07
-3.80969e-08
4.86347e-07
-4.4825e-07
5.47967e-07
-5.86064e-07
-6.22507e-07
1.40145e-07
4.82363e-07
-4.77191e-07
6.43059e-07
-5.03419e-07
-1.86581e-07
6.9e-07
-5.45535e-07
1.25238e-07
4.20297e-07
-7.09148e-07
3.20738e-08
6.77074e-07
-1.84323e-07
-5.24824e-07
-3.74976e-07
-1.47935e-07
5.22911e-07
-3.99938e-07
7.51326e-07
4.64894e-07
2.25391e-07
-6.90285e-07
6.21318e-07