/*--------------------------------*- C++ -*----------------------------------*\
  =========                 |
  \\      /  F ield         | OpenFOAM: The Open Source CFD Toolbox
   \\    /   O peration     | Website:  https://openfoam.org
    \\  /    A nd           | Version:  7
     \\/     M anipulation  |
\*---------------------------------------------------------------------------*/
FoamFile
{
    version     2.0;
    format      ascii;
    class       volVectorField;
    location    "8";
    object      U;
}
// * * * * * * * * * * * * * * * * * * * * * * * * * * * * * * * * * * * * * //

dimensions      [0 1 -1 0 0 0 0];

internalField   nonuniform List<vector> 
13182
(
(0.499998 -2.08721e-06 -1.46701e-21)
(0.500042 2.95563e-05 0)
(0.500093 -9.15122e-05 -4.99584e-21)
(0.500003 -4.48827e-06 1.14152e-20)
(0.499976 5.39126e-05 -5.4718e-22)
(0.500057 2.07314e-06 -5.68904e-21)
(0.500052 1.27747e-05 -1.09624e-20)
(0.500012 5.2723e-06 1.27508e-20)
(0.5 -3.93135e-06 6.60477e-21)
(0.500366 -3.49249e-05 -6.08493e-21)
(0.500318 -1.89871e-06 0)
(0.499978 6.30469e-06 4.25702e-23)
(0.499987 -1.01796e-05 6.60238e-22)
(0.500054 -1.00547e-05 1.25535e-20)
(0.500052 1.02835e-05 0)
(0.499963 7.32998e-06 -5.62341e-21)
(0.499998 -6.96651e-06 3.18417e-21)
(0.5 1.45843e-05 0)
(0.500049 1.19575e-05 1.09704e-20)
(0.50007 2.1286e-05 0)
(0.50005 -8.24125e-05 4.90036e-21)
(0.500048 7.17656e-06 0)
(0.499992 -1.15325e-05 -3.51265e-22)
(0.500093 -2.77485e-05 -2.03744e-20)
(0.500019 2.32679e-05 -1.20575e-21)
(0.500073 4.5059e-05 0)
(0.500007 2.25702e-05 0)
(0.500046 -3.43572e-05 0)
(0.500151 -1.15014e-05 -1.93664e-21)
(0.499998 1.46319e-05 2.0284e-20)
(0.5 1.6818e-05 0)
(0.5 -2.40528e-06 -1.19782e-20)
(0.499971 1.11625e-05 2.69613e-21)
(0.500109 4.4908e-05 -2.81385e-21)
(0.500077 0.000118711 7.87539e-21)
(0.500024 6.59673e-05 0)
(0.500002 2.96657e-06 0)
(0.500113 -5.73641e-05 8.44813e-21)
(0.50016 -3.37904e-05 0)
(0.500005 -1.73272e-05 5.95929e-21)
(0.500013 0.000109641 1.75653e-22)
(0.500279 -0.000140714 -1.34884e-21)
(0.500153 8.30459e-06 -4.87737e-21)
(0.500214 4.34566e-05 1.48193e-21)
(0.50007 1.91109e-05 7.16522e-22)
(0.50006 0.000120257 0)
(0.500001 -1.20497e-05 -1.37395e-20)
(0.500261 -7.10975e-05 0)
(0.500126 -4.31094e-05 -3.73948e-21)
(0.500012 -3.35112e-07 0)
(0.500028 -4.387e-05 0)
(0.50006 -6.75444e-05 0)
(0.500039 -1.788e-05 -3.00793e-21)
(0.50001 3.75276e-06 -4.79086e-21)
(0.49998 -1.72128e-05 0)
(0.499998 7.34954e-06 0)
(0.499971 -6.54337e-06 0)
(0.500007 -6.05439e-06 4.83377e-21)
(0.499953 -1.90792e-05 5.72516e-21)
(0.500002 1.79141e-05 0)
(0.500005 1.54722e-06 0)
(0.50001 2.61472e-06 -1.3218e-20)
(0.499984 -5.53851e-06 5.46222e-21)
(0.500041 -6.58991e-05 -9.50621e-21)
(0.500097 4.83648e-05 -1.08621e-20)
(0.500068 5.80202e-05 1.97164e-20)
(0.499954 -2.96042e-05 5.4361e-21)
(0.49999 3.38412e-05 -2.56821e-21)
(0.500012 -2.46158e-05 1.1287e-21)
(0.499974 1.76703e-05 5.28909e-21)
(0.500047 -5.22048e-05 2.76543e-22)
(0.50003 2.88554e-06 3.32147e-21)
(0.500043 1.37275e-05 -6.96673e-21)
(0.500026 9.79683e-05 0)
(0.500087 6.2603e-05 -1.95304e-21)
(0.500005 6.05484e-06 -1.32005e-20)
(0.500014 1.01428e-05 0)
(0.500019 6.24624e-06 -3.59034e-21)
(0.500007 -3.657e-06 -1.34756e-20)
(0.500032 -2.30632e-05 2.36127e-20)
(0.500001 7.27287e-06 3.28238e-21)
(0.500052 6.4763e-05 -5.74912e-21)
(0.500029 1.02303e-05 -3.08736e-21)
(0.500033 -1.82543e-05 2.80866e-21)
(0.50009 -5.7146e-06 2.32283e-21)
(0.500179 1.4281e-05 0)
(0.500221 -1.71269e-05 0)
(0.499959 -6.07578e-05 5.91384e-21)
(0.500011 2.452e-05 0)
(0.499968 2.55855e-05 4.9956e-21)
(0.500002 -4.65684e-05 0)
(0.499999 1.18818e-05 7.0945e-21)
(0.50006 1.07393e-05 -2.89457e-21)
(0.499873 -9.8284e-05 -6.54723e-21)
(0.500005 3.06504e-05 1.21839e-20)
(0.500005 -5.52522e-07 0)
(0.500098 -8.54748e-05 -4.66627e-21)
(0.499955 -3.7851e-07 -3.06769e-21)
(0.499995 1.55354e-05 0)
(0.500019 2.40092e-05 0)
(0.500077 2.30875e-05 3.29345e-21)
(0.500132 -5.9247e-05 0)
(0.500068 1.0435e-05 0)
(0.500041 7.192e-06 1.09827e-20)
(0.500032 1.85934e-05 6.31489e-21)
(0.500002 1.805e-05 4.95372e-21)
(0.500126 2.12119e-05 2.34526e-21)
(0.500401 -9.1681e-05 2.38394e-21)
(0.500007 7.87742e-06 1.6525e-20)
(0.500115 5.36242e-05 0)
(0.50003 1.60425e-05 -1.48922e-20)
(0.500187 3.66179e-05 -3.06006e-21)
(0.500327 2.35857e-05 7.42587e-21)
(0.500051 2.72015e-06 6.33781e-23)
(0.500038 -2.15718e-05 -4.53991e-21)
(0.500115 -2.32434e-06 7.98407e-21)
(0.500017 9.39011e-06 -8.3116e-21)
(0.500067 -0.00017092 -1.65999e-21)
(0.500035 -5.64329e-05 -8.03468e-21)
(0.500012 -4.98961e-05 -3.77934e-23)
(0.499988 -2.18876e-05 0)
(0.500194 1.11993e-05 5.80515e-21)
(0.50001 1.09249e-05 0)
(0.500044 5.8295e-07 1.12158e-20)
(0.500087 -1.95112e-06 4.68588e-21)
(0.500093 -1.6765e-05 0)
(0.500016 -1.01195e-05 5.4262e-21)
(0.499994 -1.66191e-06 -3.04221e-21)
(0.500037 -2.07638e-07 1.24612e-20)
(0.49994 -7.52382e-05 0)
(0.500115 -1.09998e-05 -1.57518e-21)
(0.500054 5.24209e-07 0)
(0.50002 -2.70309e-06 0)
(0.500116 -2.39314e-05 3.47445e-21)
(0.50006 -8.34845e-06 1.69296e-20)
(0.499998 -9.46096e-07 -1.14091e-20)
(0.500014 -2.85176e-06 -8.84191e-22)
(0.499982 6.85035e-06 2.7664e-21)
(0.50003 5.18645e-07 0)
(0.500037 2.24919e-05 -2.08804e-20)
(0.50007 9.05325e-05 -9.75038e-21)
(0.50035 0.000152343 0)
(0.500201 -0.000118182 -2.39668e-21)
(0.500136 -2.18511e-05 0)
(0.500166 -5.16215e-05 -5.51672e-21)
(0.50002 1.00479e-06 2.0871e-23)
(0.500067 2.69329e-05 0)
(0.499975 -4.35951e-05 0)
(0.499996 1.13245e-05 6.64611e-21)
(0.500104 -8.57559e-05 0)
(0.500062 -0.000107256 1.34876e-21)
(0.500072 5.62199e-05 -4.46116e-21)
(0.500016 4.3666e-05 0)
(0.500085 2.45081e-05 -3.86852e-21)
(0.499937 -1.46286e-05 -8.34791e-21)
(0.499976 -1.55234e-05 -9.48416e-21)
(0.500158 -2.75522e-05 0)
(0.499945 0.000154359 -1.62764e-24)
(0.500102 7.07349e-05 1.30423e-21)
(0.500079 1.17708e-05 0)
(0.500078 2.99321e-06 5.05103e-21)
(0.500117 -5.14055e-05 8.31455e-21)
(0.499997 -5.49682e-05 -3.66768e-21)
(0.499985 9.73835e-06 1.27302e-20)
(0.50003 7.35332e-07 2.37059e-23)
(0.499992 7.1114e-06 -2.68217e-23)
(0.500012 1.20274e-05 -7.09606e-21)
(0.500063 7.61063e-05 1.03491e-20)
(0.500066 3.32542e-05 -2.34048e-21)
(0.500045 -4.6399e-05 0)
(0.500191 -1.43355e-05 0)
(0.500097 -3.181e-05 6.27372e-21)
(0.500041 -2.42207e-05 0)
(0.500069 5.73618e-05 5.88515e-22)
(0.499917 4.91861e-05 -3.97678e-21)
(0.499972 -9.49998e-06 -1.10248e-20)
(0.500141 -0.000113029 0)
(0.500129 -3.55878e-05 4.01342e-21)
(0.500033 -4.08345e-06 0)
(0.500028 1.41866e-05 0)
(0.500004 2.43604e-05 4.87423e-21)
(0.500252 -6.34743e-05 4.16767e-21)
(0.5 8.12633e-06 0)
(0.500027 2.03627e-06 -1.70889e-20)
(0.499915 2.95881e-06 2.72882e-21)
(0.500133 4.18528e-05 4.20446e-21)
(0.500163 -1.64978e-05 -8.11417e-21)
(0.500006 4.41078e-06 1.21677e-20)
(0.499929 1.31901e-05 -7.05178e-21)
(0.500036 -2.83961e-06 -5.13062e-21)
(0.49991 1.82224e-05 3.40837e-21)
(0.500002 9.84825e-06 -3.31211e-26)
(0.499909 4.08398e-07 3.33011e-21)
(0.499978 1.01185e-06 0)
(0.500006 1.11434e-05 -1.38288e-20)
(0.499929 -4.48052e-05 -4.09802e-21)
(0.500143 -4.28501e-05 -7.77586e-21)
(0.499969 -2.01017e-05 -2.67066e-21)
(0.500041 -1.51309e-05 -9.44847e-21)
(0.499967 2.48022e-05 -2.60591e-21)
(0.500001 -2.30335e-05 1.17046e-20)
(0.500027 -1.07522e-05 -1.90672e-20)
(0.499982 -5.04734e-05 -6.75074e-22)
(0.500008 7.31522e-06 0)
(0.500124 3.00357e-05 5.06674e-23)
(0.499891 6.40785e-05 -2.00966e-21)
(0.500063 7.29217e-05 2.52992e-21)
(0.500308 -5.76418e-05 0)
(0.500004 4.29655e-06 -8.20701e-21)
(0.500059 5.49531e-05 3.11661e-21)
(0.500082 -3.22485e-05 0)
(0.500351 8.42073e-06 0)
(0.499998 -1.13634e-05 1.16815e-20)
(0.499969 2.74833e-06 -1.42164e-20)
(0.500094 9.81716e-06 0)
(0.500019 -1.05937e-05 0)
(0.500038 -2.48216e-05 -9.5002e-21)
(0.500004 5.39766e-06 1.41271e-20)
(0.500002 -2.03018e-05 9.84851e-21)
(0.49998 3.74953e-05 4.53223e-22)
(0.500047 5.06873e-05 0)
(0.500099 2.32806e-05 0)
(0.499987 4.93345e-05 -1.41651e-21)
(0.500043 -1.75444e-05 -3.10005e-21)
(0.500086 -4.31412e-05 -2.44993e-21)
(0.500003 9.17484e-07 1.43707e-20)
(0.500011 -1.55823e-06 -6.01728e-21)
(0.499999 1.94781e-05 0)
(0.499993 4.83735e-06 -6.57039e-21)
(0.500023 2.73505e-06 2.32409e-20)
(0.5 4.69902e-06 -6.37098e-21)
(0.500054 3.75054e-05 6.26756e-21)
(0.500061 2.19818e-05 -6.2468e-21)
(0.500051 -1.23905e-05 0)
(0.500017 2.00364e-05 1.53859e-21)
(0.500001 -1.47685e-06 0)
(0.50015 -7.02112e-05 3.401e-23)
(0.500048 2.69814e-06 -1.19604e-20)
(0.500058 5.47195e-06 0)
(0.499976 3.99711e-05 4.74974e-23)
(0.500136 2.9926e-05 -3.20204e-21)
(0.500144 -4.40961e-05 1.68136e-21)
(0.500013 -9.51575e-06 6.25395e-21)
(0.499997 1.99037e-06 -5.23402e-21)
(0.5 -1.07378e-05 1.70571e-20)
(0.500023 2.96243e-05 -5.8228e-21)
(0.499998 -4.70127e-05 -9.97277e-21)
(0.500076 -1.27522e-05 1.93696e-20)
(0.499998 9.41316e-08 6.97767e-22)
(0.500048 7.06497e-06 -4.91295e-21)
(0.499986 -8.41847e-06 -2.76133e-21)
(0.500011 -3.71388e-05 5.29431e-21)
(0.500013 -2.25021e-05 -1.38373e-20)
(0.500019 -3.65792e-06 4.25269e-21)
(0.500071 0.000156981 2.00841e-21)
(0.500005 9.49252e-07 5.83537e-21)
(0.500148 1.53635e-05 1.9012e-21)
(0.5003 2.6081e-05 1.31514e-21)
(0.500223 -1.99401e-05 2.85982e-22)
(0.500104 5.31606e-06 1.84206e-21)
(0.500089 5.3606e-05 0)
(0.499999 -3.37113e-06 -1.77709e-20)
(0.500013 -2.97959e-06 -6.3162e-21)
(0.499998 4.91284e-06 0)
(0.499969 4.38463e-05 5.9462e-21)
(0.500077 -3.12006e-05 -4.21433e-21)
(0.499932 -0.000104051 -2.83565e-21)
(0.500038 -3.0902e-06 0)
(0.500009 1.3608e-05 1.01952e-20)
(0.500002 1.07324e-05 7.9971e-22)
(0.500012 3.62514e-06 1.23637e-20)
(0.500023 -3.29016e-06 1.33156e-20)
(0.500047 -1.54459e-05 -1.21378e-20)
(0.500031 -1.35404e-05 0)
(0.500007 1.21441e-05 0)
(0.500101 -9.22833e-05 7.61246e-21)
(0.500029 2.90176e-06 -1.25607e-20)
(0.50002 4.48792e-06 1.77628e-20)
(0.500033 -1.17105e-05 0)
(0.500003 1.14679e-05 0)
(0.500002 4.54959e-06 1.34708e-20)
(0.499931 -5.12749e-05 -3.9707e-21)
(0.500014 -1.64771e-05 0)
(0.500024 -1.74465e-05 -7.82727e-21)
(0.49999 -1.51549e-05 1.44462e-21)
(0.500056 8.13258e-05 -1.05597e-21)
(0.500077 -5.72605e-05 -7.46213e-21)
(0.500003 9.49385e-06 1.27583e-20)
(0.500126 0.000106284 -2.63417e-21)
(0.499994 1.20363e-05 7.17546e-21)
(0.50001 -1.84642e-05 -3.45779e-21)
(0.500252 2.21268e-05 2.91021e-21)
(0.499996 -1.39777e-05 -2.07551e-21)
(0.500083 4.58446e-05 2.74087e-21)
(0.500002 2.29421e-05 -3.16506e-21)
(0.500003 -2.41721e-07 -4.8737e-21)
(0.50001 4.08396e-06 0)
(0.500008 5.95753e-06 0)
(0.500009 -6.79005e-06 1.02266e-20)
(0.500008 -4.38135e-06 3.44923e-21)
(0.499897 1.70832e-05 -4.69993e-21)
(0.50002 -5.92255e-05 -1.42722e-20)
(0.500007 -1.47996e-05 -6.00004e-21)
(0.499996 -1.57474e-05 -3.163e-21)
(0.500178 -0.000137516 0)
(0.499794 -1.73985e-05 4.01972e-21)
(0.500038 2.83582e-06 -1.05266e-20)
(0.500061 1.7715e-05 -5.58503e-21)
(0.500002 -1.06146e-05 -1.35764e-20)
(0.499899 -2.77633e-05 -5.57919e-25)
(0.499994 -1.28683e-05 0)
(0.499991 1.37981e-06 6.10122e-21)
(0.499984 -9.96613e-06 3.66404e-21)
(0.49999 2.08724e-05 -1.29682e-20)
(0.5 1.07021e-05 0)
(0.500005 -5.33389e-06 1.46014e-20)
(0.500001 2.47865e-06 -1.24226e-20)
(0.500014 1.90728e-05 0)
(0.499998 6.69939e-06 -2.39798e-20)
(0.500071 4.48704e-05 -3.59582e-21)
(0.499959 5.20519e-05 5.84068e-21)
(0.499979 1.46936e-05 -2.18585e-21)
(0.500025 2.05156e-05 -1.23436e-20)
(0.500017 -3.81659e-06 6.08795e-21)
(0.500032 9.92055e-06 -9.86182e-21)
(0.500014 6.72111e-07 1.26455e-20)
(0.500026 5.68138e-05 -3.79291e-23)
(0.499997 1.56558e-05 0)
(0.499992 -9.69095e-05 0)
(0.500023 2.05046e-05 3.99136e-21)
(0.500077 3.60876e-05 0)
(0.500065 3.65066e-05 0)
(0.500064 -2.59105e-05 0)
(0.500156 -5.92695e-06 6.91002e-21)
(0.500103 -2.79246e-05 0)
(0.50001 -2.19989e-05 -6.85262e-22)
(0.500032 4.30589e-05 1.04462e-20)
(0.499973 5.25801e-06 5.64358e-21)
(0.49999 7.6044e-06 0)
(0.50024 -3.5025e-05 -3.24715e-21)
(0.500093 -0.000104828 -8.96378e-22)
(0.499997 -1.1052e-05 0)
(0.499994 -3.47318e-06 1.72882e-21)
(0.500127 7.60093e-05 0)
(0.50023 -6.84959e-05 -6.03297e-21)
(0.500011 7.80345e-06 0)
(0.50002 -4.51619e-06 -1.06914e-20)
(0.500038 -9.3827e-06 0)
(0.500006 -2.2546e-05 1.17169e-20)
(0.50012 1.1368e-05 1.12613e-20)
(0.500093 2.33389e-05 -1.05903e-20)
(0.50001 1.027e-05 1.90013e-20)
(0.499982 -6.36478e-05 -2.08617e-21)
(0.500033 7.39123e-07 -1.16969e-20)
(0.50005 1.4791e-05 1.67887e-20)
(0.500007 5.50608e-06 5.59575e-21)
(0.500005 -1.37637e-05 9.35537e-21)
(0.500015 -2.32078e-05 9.75166e-21)
(0.5 -6.72508e-07 3.23346e-21)
(0.499977 1.68005e-06 -1.22652e-20)
(0.499993 -2.20855e-05 -1.63374e-21)
(0.500004 1.06723e-05 0)
(0.500053 -3.74177e-05 2.08382e-21)
(0.500051 5.02938e-06 -3.45738e-21)
(0.499993 0.000121631 5.31688e-21)
(0.500057 -2.22924e-06 0)
(0.499997 1.50756e-05 -8.48085e-21)
(0.500037 1.50523e-05 -1.32218e-20)
(0.500007 3.78128e-06 -4.00834e-25)
(0.500024 3.06571e-05 0)
(0.500001 3.233e-06 6.42663e-21)
(0.50001 2.17223e-05 -6.33195e-21)
(0.500056 -3.89476e-05 1.69006e-21)
(0.500069 2.52525e-05 2.19334e-21)
(0.49999 -1.25794e-05 1.47528e-20)
(0.500008 7.36769e-06 -4.86713e-21)
(0.499972 1.35271e-05 9.70073e-21)
(0.500077 4.41301e-06 2.82889e-21)
(0.500257 8.0518e-05 2.47358e-22)
(0.500099 7.35302e-05 -1.43269e-21)
(0.500028 -6.98654e-05 1.12758e-20)
(0.500081 6.8759e-05 6.31183e-21)
(0.500005 8.43957e-06 1.24604e-20)
(0.500048 1.32363e-05 5.94909e-21)
(0.499992 2.84246e-05 3.73035e-21)
(0.500051 -5.64513e-05 1.47833e-22)
(0.500096 -2.20778e-07 7.72807e-21)
(0.500018 -3.78652e-06 3.21611e-21)
(0.499995 7.25834e-05 -2.85554e-22)
(0.499937 2.03858e-05 -8.35529e-23)
(0.500001 3.76115e-05 0)
(0.499993 -2.8184e-07 8.56658e-22)
(0.499999 -3.68923e-06 -1.30681e-20)
(0.499993 4.69536e-05 5.28838e-21)
(0.500041 2.6048e-07 4.65211e-21)
(0.499982 -7.46125e-06 0)
(0.500004 3.97307e-06 0)
(0.500069 -6.05176e-06 -3.16522e-21)
(0.499967 -9.40693e-05 1.0814e-20)
(0.500035 1.40617e-05 -3.46021e-21)
(0.50014 -7.82619e-05 0)
(0.500078 -6.71025e-05 -3.10246e-21)
(0.500026 8.3033e-08 2.69512e-21)
(0.500003 5.35633e-06 -2.67079e-21)
(0.50001 1.78105e-05 -8.88399e-21)
(0.500058 -4.05846e-05 8.04915e-21)
(0.500051 -2.00845e-05 -5.62526e-21)
(0.500008 1.40699e-06 1.29862e-20)
(0.500006 -2.06986e-06 0)
(0.499994 -2.6284e-05 -9.08743e-21)
(0.500013 6.99427e-05 -1.10973e-20)
(0.499998 5.25816e-05 0)
(0.500043 6.31771e-05 7.6528e-22)
(0.500043 2.88724e-05 -2.44037e-21)
(0.499995 -8.43874e-07 0)
(0.500044 -1.96272e-05 2.22662e-21)
(0.5 4.2445e-07 0)
(0.500335 0.000117254 -2.2447e-22)
(0.500035 -2.05159e-05 0)
(0.500033 -3.79067e-05 0)
(0.500076 2.77019e-05 0)
(0.500049 2.51667e-05 -2.48596e-20)
(0.500005 1.61366e-05 1.60928e-21)
(0.500004 1.61465e-05 0)
(0.499993 4.43221e-06 0)
(0.50024 7.83463e-05 5.79186e-21)
(0.500025 -1.88573e-05 6.27473e-21)
(0.500041 8.20585e-07 4.8423e-21)
(0.500051 1.3218e-05 0)
(0.500008 2.22771e-05 -5.95638e-21)
(0.500124 8.17157e-05 -7.41736e-22)
(0.500065 3.95514e-05 1.05298e-20)
(0.499991 3.08824e-05 1.38164e-21)
(0.500019 -1.83766e-06 1.25435e-20)
(0.500051 1.17589e-05 6.79279e-21)
(0.500081 -8.65275e-05 0)
(0.500002 2.6217e-06 5.59816e-21)
(0.500021 4.22078e-06 2.12667e-21)
(0.499992 -7.94327e-05 5.5756e-21)
(0.50003 4.52072e-05 0)
(0.500009 -2.71092e-05 -2.77705e-21)
(0.500123 3.71083e-05 -9.03888e-21)
(0.50004 -2.25326e-05 0)
(0.499988 1.62499e-05 -6.00019e-21)
(0.499936 -3.96473e-05 1.49155e-20)
(0.500002 -1.04357e-06 0)
(0.500271 -9.47846e-05 0)
(0.500003 -8.81777e-07 0)
(0.499972 5.07058e-05 0)
(0.5 6.9627e-06 6.5186e-21)
(0.499992 1.21163e-06 -1.19234e-20)
(0.499974 4.27249e-05 1.1874e-20)
(0.499939 -3.83258e-05 3.72519e-21)
(0.500009 1.69622e-06 3.4092e-21)
(0.500014 -0.000110226 1.71419e-21)
(0.500074 -2.99014e-05 1.06922e-20)
(0.499994 3.47634e-06 0)
(0.500004 1.0655e-05 0)
(0.499993 1.02179e-05 0)
(0.500018 -1.08712e-05 1.64922e-20)
(0.499999 -4.1142e-07 -6.14349e-21)
(0.500001 -6.13604e-07 1.46516e-21)
(0.49986 -0.000115395 1.16786e-22)
(0.500018 7.61572e-06 1.02157e-20)
(0.499999 -1.05362e-05 0)
(0.499998 -4.32827e-06 1.43052e-20)
(0.500064 2.603e-05 -4.56352e-21)
(0.499956 -3.68807e-05 -2.24122e-21)
(0.499999 2.38296e-06 1.18583e-23)
(0.500033 -1.85884e-08 0)
(0.500016 -1.41996e-05 -1.00027e-20)
(0.500104 -0.000221314 0)
(0.500001 -3.05146e-06 -1.29372e-20)
(0.500027 -3.81746e-06 0)
(0.500099 3.81285e-06 -2.40354e-21)
(0.500154 8.37087e-05 4.46454e-21)
(0.499996 1.22796e-05 -3.45707e-21)
(0.500056 -9.96471e-05 -8.53546e-22)
(0.499996 1.38291e-05 3.4172e-21)
(0.50001 1.65854e-05 -1.28105e-20)
(0.500005 4.59797e-07 0)
(0.500006 9.30716e-06 -1.1981e-20)
(0.500049 -2.55752e-05 0)
(0.500009 7.65985e-06 0)
(0.499971 3.05913e-05 -1.08186e-21)
(0.500083 0.00016072 -3.12004e-21)
(0.500001 -1.9625e-05 -1.52986e-20)
(0.500108 -2.13917e-05 1.07903e-20)
(0.500079 -1.59263e-05 0)
(0.5004 -0.00020907 1.20341e-21)
(0.500013 -6.84395e-06 0)
(0.50004 -2.56435e-05 5.0558e-21)
(0.500002 6.6671e-07 -6.29835e-21)
(0.499886 6.46059e-05 4.95142e-21)
(0.500001 6.37471e-06 0)
(0.499861 6.58846e-05 4.03296e-21)
(0.500114 -4.00178e-05 -8.18125e-21)
(0.500141 -5.26398e-05 -2.61703e-22)
(0.500006 2.27384e-05 0)
(0.499982 -1.73247e-05 -9.82668e-21)
(0.500008 3.48613e-06 0)
(0.499992 2.3581e-06 6.69926e-21)
(0.500014 4.28113e-06 3.3158e-21)
(0.500198 -3.73592e-06 0)
(0.500144 4.83512e-05 -3.39769e-21)
(0.50002 1.71184e-05 -1.47251e-21)
(0.499997 -1.10315e-05 0)
(0.500012 1.77055e-05 0)
(0.500008 -3.67297e-05 -1.26251e-20)
(0.500169 4.52352e-05 4.37077e-21)
(0.500137 -1.4013e-05 4.2893e-21)
(0.499902 -2.74644e-05 0)
(0.500053 3.01844e-06 0)
(0.500094 -8.16711e-05 1.10348e-20)
(0.500081 2.2011e-05 1.02659e-20)
(0.500058 1.13216e-05 -5.2179e-23)
(0.500005 -1.66928e-05 7.4716e-21)
(0.499996 -1.2075e-06 0)
(0.499973 2.90799e-05 -6.05259e-21)
(0.49996 -0.000197747 -3.58938e-21)
(0.50001 7.63177e-06 -1.19899e-20)
(0.500021 1.85013e-06 0)
(0.50003 2.52342e-05 -3.07446e-21)
(0.500012 9.64407e-05 1.9147e-21)
(0.500047 -4.18871e-05 -4.20431e-21)
(0.500057 1.18584e-05 0)
(0.500002 1.12629e-05 5.61638e-21)
(0.499984 -3.22914e-05 0)
(0.499998 4.34227e-06 0)
(0.500084 3.56603e-05 -5.04319e-21)
(0.500007 1.25879e-05 4.90482e-21)
(0.499996 -1.67747e-05 -9.77335e-21)
(0.500085 -1.32298e-05 6.59972e-21)
(0.499993 -2.05455e-05 5.75717e-21)
(0.500227 -4.0865e-05 -5.74899e-22)
(0.500064 5.71383e-06 -5.73844e-21)
(0.500021 2.46848e-05 6.01033e-21)
(0.499956 -0.000109302 -6.43582e-21)
(0.500073 2.0042e-05 0)
(0.500038 2.49323e-05 0)
(0.500031 1.03045e-06 0)
(0.500031 -2.56295e-06 -6.26674e-21)
(0.500004 3.65979e-06 -7.04776e-21)
(0.500185 -2.03085e-05 -2.16222e-21)
(0.499988 -2.05673e-06 -1.27464e-20)
(0.500017 -1.19981e-05 -2.34293e-21)
(0.500118 3.90609e-05 4.87783e-21)
(0.500007 7.32603e-08 -1.17074e-20)
(0.500112 7.13748e-05 7.27312e-21)
(0.500006 1.48768e-05 -1.22149e-20)
(0.499998 1.09514e-05 -3.18335e-21)
(0.500023 2.70079e-05 6.22178e-21)
(0.500039 1.65946e-05 0)
(0.500022 1.27083e-05 -9.57961e-21)
(0.500049 2.65117e-05 -3.44026e-21)
(0.500014 -2.57198e-06 -2.11493e-22)
(0.49999 8.86983e-07 3.26871e-21)
(0.499991 -1.90044e-05 2.98158e-21)
(0.500042 -6.59037e-06 -1.58058e-20)
(0.500017 1.10729e-05 1.61176e-20)
(0.500158 2.65911e-05 -7.41827e-21)
(0.500001 1.81974e-05 0)
(0.500021 2.02588e-05 -1.5356e-20)
(0.500036 2.25558e-05 -5.47088e-21)
(0.500002 -2.45323e-06 1.20939e-20)
(0.500021 -1.91643e-05 1.20798e-20)
(0.500027 2.69062e-05 -5.09028e-21)
(0.500122 -0.000104067 1.74636e-21)
(0.500141 -0.000113759 6.15827e-21)
(0.500036 -1.70324e-07 0)
(0.500058 -2.58448e-05 -1.36244e-21)
(0.500134 0.000103495 6.37832e-21)
(0.500111 4.1411e-05 -7.22214e-21)
(0.500018 2.51821e-05 -5.55767e-21)
(0.500003 -9.88085e-08 1.19655e-20)
(0.499986 9.32406e-07 -1.31334e-20)
(0.500001 -1.89015e-05 0)
(0.500033 -8.5704e-06 5.93112e-21)
(0.499979 -9.70013e-06 -7.2111e-21)
(0.50003 -7.29514e-05 4.24813e-21)
(0.500048 -1.6954e-05 1.10493e-20)
(0.50013 -0.000119525 0)
(0.500001 2.55212e-06 1.82122e-20)
(0.500015 -2.49753e-05 -3.54727e-23)
(0.50005 -3.91763e-05 -6.1719e-21)
(0.500094 3.961e-05 -3.01868e-21)
(0.499996 -4.11099e-06 0)
(0.500014 1.09978e-05 1.20285e-20)
(0.500018 3.15971e-05 -1.30115e-20)
(0.500104 4.34642e-05 -8.33087e-21)
(0.50004 4.6905e-05 -8.23349e-21)
(0.500057 5.28878e-05 0)
(0.500017 -1.25857e-05 1.09571e-20)
(0.499959 3.03375e-05 -1.08108e-20)
(0.500016 1.95525e-05 -1.66901e-20)
(0.500058 -6.52568e-05 -6.68705e-21)
(0.50019 -5.84572e-06 -4.65112e-21)
(0.500006 3.08111e-06 0)
(0.499999 4.4209e-06 8.74197e-21)
(0.499997 -6.93505e-06 1.5138e-20)
(0.500035 -1.84919e-06 1.34319e-20)
(0.500003 4.95108e-06 0)
(0.500004 1.38788e-05 0)
(0.499989 -5.20723e-07 -9.59709e-21)
(0.500143 -0.000109752 1.60135e-21)
(0.500113 -1.268e-05 4.2147e-23)
(0.500191 -4.18785e-05 -1.69251e-21)
(0.500081 -2.17691e-05 -1.35892e-20)
(0.500002 1.02993e-05 -6.54685e-21)
(0.500004 3.49876e-06 0)
(0.500003 7.01066e-06 -1.38579e-20)
(0.500058 9.12889e-06 -3.28462e-21)
(0.499991 2.04344e-05 5.73712e-21)
(0.50017 2.87794e-05 -5.4185e-21)
(0.500129 5.44178e-05 4.20404e-21)
(0.499949 -0.00012797 7.64979e-22)
(0.500091 -0.000105047 -7.62875e-21)
(0.499952 1.51039e-05 5.25606e-21)
(0.500032 1.55727e-05 2.38289e-21)
(0.499998 -2.45379e-05 2.8864e-21)
(0.500012 -6.25165e-06 -1.28606e-20)
(0.500202 -0.000108837 0)
(0.500024 -1.68201e-05 0)
(0.499991 9.41293e-06 -6.70449e-21)
(0.500171 -0.000201953 5.44052e-21)
(0.500095 -0.000141342 -8.31909e-21)
(0.500001 4.00023e-06 -1.2486e-20)
(0.500041 1.37704e-05 -1.33908e-20)
(0.499883 6.62858e-05 0)
(0.500006 -1.60835e-05 -7.42646e-22)
(0.499999 6.4507e-06 3.40759e-21)
(0.499999 1.73173e-06 0)
(0.500025 -2.13384e-05 0)
(0.5 -4.86509e-05 1.29294e-21)
(0.500042 -1.05661e-05 0)
(0.499986 -9.96757e-05 6.84096e-21)
(0.500028 -5.96468e-07 -3.6413e-21)
(0.500024 1.20726e-05 -1.49392e-21)
(0.499992 4.91139e-06 5.19068e-21)
(0.500019 3.79023e-06 -3.72409e-23)
(0.499982 -1.48492e-06 6.51113e-21)
(0.500029 0.000158342 0)
(0.500019 3.82827e-05 -1.11113e-20)
(0.499985 -1.93906e-05 1.18748e-20)
(0.500001 2.03153e-06 -9.41695e-24)
(0.500038 2.01916e-05 -1.11796e-21)
(0.500103 5.3228e-07 0)
(0.500021 7.0618e-06 -3.42197e-21)
(0.500031 -7.37491e-05 -4.2753e-21)
(0.500027 4.78899e-05 1.22561e-21)
(0.500014 1.26492e-05 -6.85548e-21)
(0.499993 1.09903e-05 1.93994e-20)
(0.500067 -2.31297e-05 3.8983e-21)
(0.500004 6.35015e-06 -3.16411e-21)
(0.500003 1.12388e-06 0)
(0.500039 1.56497e-05 -5.21798e-21)
(0.499998 7.52423e-06 6.83104e-21)
(0.500011 4.71059e-06 4.45403e-21)
(0.500383 -4.39379e-05 -2.96561e-22)
(0.499841 3.49349e-05 -1.95147e-21)
(0.500005 1.74382e-05 -1.9011e-20)
(0.499972 6.38806e-06 0)
(0.500124 -7.29524e-05 -2.82698e-21)
(0.500032 -6.34521e-06 5.6277e-21)
(0.499996 7.86082e-06 1.17311e-20)
(0.500012 -2.29776e-05 1.12051e-20)
(0.499987 1.69782e-05 1.21163e-20)
(0.499996 2.40066e-05 -6.05309e-21)
(0.5 -3.36876e-06 0)
(0.50003 3.73459e-06 -5.19848e-21)
(0.499998 1.35462e-06 0)
(0.500025 -2.90902e-05 0)
(0.499989 -1.47762e-06 0)
(0.500014 -1.51847e-06 -1.01977e-20)
(0.500002 -1.36801e-05 7.22727e-22)
(0.500122 -5.68667e-05 2.0578e-21)
(0.500004 1.81785e-06 -2.69084e-21)
(0.500009 -1.16968e-05 -3.30955e-21)
(0.50007 0.000132791 5.40152e-21)
(0.500019 -1.11512e-08 1.28093e-20)
(0.500053 -2.65349e-05 7.52712e-21)
(0.500007 -3.50763e-06 6.83425e-21)
(0.499994 1.20127e-06 0)
(0.499986 4.38773e-05 6.87529e-21)
(0.500012 8.93659e-06 1.40482e-20)
(0.499959 2.18709e-06 0)
(0.500122 6.74585e-06 0)
(0.50005 -1.4966e-05 0)
(0.499999 -6.38044e-05 1.5801e-21)
(0.499999 -4.43156e-06 -1.30989e-20)
(0.500063 -1.20547e-05 1.2307e-20)
(0.500015 -5.50792e-06 -1.71754e-20)
(0.500038 -7.69334e-06 0)
(0.500095 -1.20447e-05 -7.42981e-21)
(0.500004 2.37564e-07 -1.34415e-20)
(0.500006 3.98857e-06 1.10892e-20)
(0.500033 3.52248e-05 0)
(0.500079 -4.76722e-06 0)
(0.499972 2.30129e-06 5.78377e-21)
(0.500046 -7.8517e-05 3.42994e-21)
(0.500006 -1.12212e-06 -1.58708e-21)
(0.500005 4.31798e-06 0)
(0.500028 -9.24108e-06 1.99575e-20)
(0.500039 1.6624e-05 1.32946e-20)
(0.499972 -8.90751e-05 -2.01613e-21)
(0.500004 -2.77072e-06 0)
(0.500026 1.43775e-05 0)
(0.500026 8.32692e-06 -6.05025e-21)
(0.500042 1.01671e-05 -2.18097e-21)
(0.500069 -2.69824e-05 0)
(0.500007 1.18426e-05 -6.77812e-21)
(0.499992 -9.05911e-06 2.98368e-21)
(0.500047 7.58393e-06 0)
(0.500021 8.70512e-06 6.50753e-21)
(0.500216 6.17349e-05 -6.49369e-21)
(0.500158 -5.5256e-05 7.34624e-21)
(0.500002 -7.2134e-06 0)
(0.499992 -1.28508e-05 1.41508e-20)
(0.499995 -4.12343e-06 0)
(0.500043 7.59729e-05 -4.05271e-22)
(0.500172 2.76317e-05 0)
(0.500007 -8.58526e-05 -5.0312e-22)
(0.499997 2.70858e-06 -1.23618e-20)
(0.499988 -2.88159e-05 1.07924e-20)
(0.499999 8.2944e-06 0)
(0.499999 7.53575e-06 -2.45335e-21)
(0.5001 -0.000176311 0)
(0.500115 -3.87303e-05 -5.00041e-21)
(0.500025 3.72079e-05 6.49996e-21)
(0.499999 7.5869e-06 -1.37904e-20)
(0.500014 2.51243e-05 -1.16577e-20)
(0.500074 3.45202e-05 -5.7303e-21)
(0.500039 -2.36832e-05 5.36377e-21)
(0.500024 -1.66007e-05 -9.46495e-21)
(0.500073 4.27582e-05 -2.76998e-21)
(0.500034 -1.12617e-05 -8.24783e-21)
(0.500023 3.17488e-06 1.33457e-20)
(0.50001 -3.13697e-07 0)
(0.500088 1.66573e-05 -1.19555e-20)
(0.500093 3.00367e-05 -1.50083e-20)
(0.500113 3.46628e-06 5.05726e-21)
(0.500012 -4.83408e-06 -6.49341e-21)
(0.499996 7.70374e-06 -5.02382e-21)
(0.500032 4.64302e-05 0)
(0.499997 1.84234e-06 0)
(0.499964 4.16035e-05 -9.05101e-21)
(0.500008 3.99202e-05 5.37306e-21)
(0.499952 2.59349e-05 -5.61109e-21)
(0.500011 -8.93477e-06 2.84021e-21)
(0.500135 -1.7233e-06 1.15487e-20)
(0.499995 -2.36051e-06 -1.14366e-20)
(0.500255 5.13777e-05 0)
(0.50003 9.91416e-06 0)
(0.499999 5.53068e-06 3.66866e-22)
(0.499839 2.37229e-05 9.68397e-23)
(0.500004 2.38018e-06 4.31969e-22)
(0.499981 -5.90269e-05 0)
(0.499983 -9.39297e-06 1.08338e-23)
(0.499984 -5.89302e-07 0)
(0.500125 1.19741e-06 2.51057e-21)
(0.500014 5.67878e-06 -1.37957e-20)
(0.499993 2.45576e-07 5.00411e-21)
(0.500271 4.60906e-05 -6.81256e-21)
(0.500062 1.9928e-06 0)
(0.500012 1.8547e-06 1.63065e-21)
(0.499998 -7.46902e-06 3.44937e-21)
(0.499926 3.36202e-05 -1.02383e-20)
(0.500042 -1.70568e-06 2.94093e-21)
(0.500006 -3.19947e-07 -3.69905e-21)
(0.50001 4.86467e-06 -1.10415e-20)
(0.500297 7.28247e-05 1.03036e-21)
(0.500126 4.01615e-05 -2.46237e-21)
(0.500012 3.60928e-06 3.03192e-21)
(0.500014 -5.11543e-06 -2.71686e-21)
(0.499997 -1.48581e-06 -3.28068e-21)
(0.5 -2.28472e-06 -1.18844e-20)
(0.500093 4.60955e-05 6.55994e-21)
(0.500016 5.65708e-06 9.94026e-21)
(0.500007 3.38534e-07 -1.41685e-20)
(0.499996 -3.341e-06 1.81169e-20)
(0.500003 -6.72887e-06 -2.54881e-21)
(0.500181 -5.50627e-05 -4.2793e-21)
(0.499994 9.17464e-06 -1.20929e-20)
(0.500218 4.26273e-05 -1.13424e-20)
(0.500087 5.35123e-05 -5.85082e-23)
(0.500267 -0.000107787 0)
(0.500002 -4.9448e-07 -1.32004e-20)
(0.500025 -3.20156e-05 6.58328e-21)
(0.500049 -8.32951e-06 -2.78489e-21)
(0.500006 2.02371e-05 4.10051e-21)
(0.500064 -4.32288e-05 -1.13308e-20)
(0.500023 -6.1275e-05 -3.7005e-21)
(0.500039 9.14777e-06 1.38365e-20)
(0.499971 2.1929e-05 0)
(0.499964 2.11138e-06 -4.0195e-21)
(0.50004 -7.82939e-05 2.95722e-21)
(0.500005 -3.24827e-06 0)
(0.499993 -2.10857e-05 2.0584e-20)
(0.500016 1.08697e-07 -5.94272e-21)
(0.500106 -1.34408e-05 3.41581e-21)
(0.500148 -6.60142e-05 -4.19347e-21)
(0.500005 2.35146e-06 -5.07199e-21)
(0.499952 7.63451e-05 0)
(0.500019 9.44977e-06 -1.31589e-20)
(0.500056 -5.22656e-05 -5.40217e-22)
(0.50002 1.16309e-05 1.38405e-20)
(0.500023 1.52061e-05 1.06088e-20)
(0.500011 3.3985e-06 1.68388e-21)
(0.500011 -8.54794e-06 -6.04013e-21)
(0.500037 4.72249e-05 -2.71263e-21)
(0.500033 1.4499e-05 0)
(0.5 2.73997e-05 0)
(0.499839 -1.59472e-05 7.79559e-23)
(0.500077 6.24017e-05 6.89479e-21)
(0.500104 -9.61926e-05 -4.01972e-21)
(0.500268 6.62135e-05 -8.64407e-21)
(0.500144 4.3843e-05 0)
(0.499998 -3.5734e-05 -1.93538e-22)
(0.500007 -1.33987e-05 1.10918e-20)
(0.500091 -5.34759e-06 -5.18987e-21)
(0.500116 2.7886e-05 0)
(0.499995 4.55573e-06 0)
(0.500049 2.7111e-05 9.35153e-21)
(0.500002 -2.46591e-06 2.72389e-21)
(0.499939 -1.61403e-06 -2.75878e-21)
(0.500001 -3.67218e-06 3.25802e-21)
(0.500159 -1.03752e-05 3.34243e-21)
(0.499847 -8.58446e-05 0)
(0.500001 -2.12174e-05 0)
(0.499992 3.80551e-05 -8.29388e-21)
(0.499999 -2.46875e-06 -2.56157e-20)
(0.499987 7.43364e-06 1.1078e-20)
(0.500023 -1.27489e-05 6.54165e-21)
(0.499993 -1.14599e-05 1.49032e-21)
(0.499932 1.16631e-05 -6.11903e-21)
(0.500005 6.9504e-05 1.12837e-20)
(0.500321 -8.88866e-05 2.18008e-21)
(0.500302 -5.1284e-05 -2.23269e-21)
(0.500119 -1.83879e-06 -7.48439e-21)
(0.500008 -5.21508e-05 0)
(0.500012 2.80375e-06 -2.74419e-20)
(0.500115 -6.38361e-05 -3.66894e-21)
(0.499978 1.82742e-05 1.08854e-20)
(0.5 -4.49988e-06 0)
(0.500024 -7.04021e-06 -2.90558e-21)
(0.50005 -6.41425e-06 0)
(0.500063 -5.45533e-05 -6.15394e-21)
(0.500091 7.50205e-05 -3.39549e-21)
(0.50005 6.18267e-06 -6.01348e-21)
(0.500051 3.36315e-06 0)
(0.500017 -2.18896e-06 0)
(0.500012 -1.94013e-05 0)
(0.499923 -2.64333e-05 -7.38092e-21)
(0.500004 1.45988e-05 -1.28383e-20)
(0.499993 1.88188e-05 7.80883e-21)
(0.5001 -8.91407e-05 8.44879e-21)
(0.500305 -4.67039e-05 0)
(0.499999 8.61379e-06 -3.59764e-21)
(0.5 9.01277e-06 6.56491e-21)
(0.499912 -1.48968e-05 0)
(0.500023 1.23086e-05 0)
(0.500088 6.55216e-07 -2.20281e-21)
(0.499997 9.10459e-06 -6.67784e-21)
(0.500029 0.000132149 0)
(0.500081 -8.13934e-05 5.05019e-21)
(0.500018 3.87358e-07 6.21298e-21)
(0.499991 -7.96211e-05 -3.1988e-22)
(0.500103 -1.84578e-05 5.95922e-21)
(0.500045 1.1972e-06 5.87472e-21)
(0.499995 5.94424e-06 -3.7322e-21)
(0.500008 8.97798e-06 7.82345e-22)
(0.500007 4.97237e-06 6.79327e-21)
(0.500042 3.28815e-05 5.18114e-21)
(0.499995 1.42212e-05 0)
(0.499976 4.04164e-05 1.26593e-21)
(0.500005 1.17021e-05 0)
(0.5 -1.7416e-07 -7.45221e-21)
(0.499901 5.84893e-05 0)
(0.500012 6.12397e-06 6.14058e-21)
(0.500081 1.21765e-05 2.27882e-21)
(0.500017 -1.04687e-05 -1.41699e-20)
(0.500016 -6.03454e-06 -1.28905e-20)
(0.500162 -2.54375e-05 -1.94923e-21)
(0.49996 -9.82036e-06 4.49984e-21)
(0.500007 3.80668e-05 0)
(0.50001 7.10406e-06 3.48239e-21)
(0.5 3.21725e-06 -2.07938e-22)
(0.499998 -1.006e-07 0)
(0.5 4.90979e-06 -1.67147e-20)
(0.500026 2.19094e-05 1.78236e-20)