/*--------------------------------*- C++ -*----------------------------------*\
  =========                 |
  \\      /  F ield         | OpenFOAM: The Open Source CFD Toolbox
   \\    /   O peration     | Website:  https://openfoam.org
    \\  /    A nd           | Version:  7
     \\/     M anipulation  |
\*---------------------------------------------------------------------------*/
FoamFile
{
    version     2.0;
    format      ascii;
    class       volScalarField;
    location    "4";
    object      p;
}
// * * * * * * * * * * * * * * * * * * * * * * * * * * * * * * * * * * * * * //

dimensions      [0 2 -2 0 0 0 0];

internalField   nonuniform List<scalar> 
13182
(
6.05204e-08
1.20211e-08
4.38936e-08
6.42475e-08
2.21495e-08
5.74102e-08
5.78183e-08
6.21649e-08
6.51678e-08
2.82483e-08
2.83818e-08
3.45448e-08
5.83039e-08
5.78158e-08
5.66576e-08
5.91175e-08
6.50085e-08
6.63734e-08
5.62779e-08
5.67612e-08
5.66906e-08
6.08713e-08
5.89126e-08
5.15017e-08
5.06245e-08
5.10191e-08
6.23529e-08
5.10709e-08
3.52061e-08
6.65532e-08
6.6555e-08
6.47693e-08
5.93504e-08
2.81787e-08
2.58164e-08
5.66133e-08
6.42524e-08
3.76207e-08
3.97829e-08
6.1708e-08
1.18477e-08
1.3465e-08
4.57499e-08
6.2195e-09
4.90975e-08
2.16107e-08
6.43034e-08
4.24956e-08
4.08109e-08
6.35122e-08
4.87134e-08
4.92766e-08
2.82389e-08
6.21415e-08
5.80449e-08
5.17486e-08
3.6131e-08
6.31343e-08
5.82276e-08
6.5775e-08
6.42035e-08
6.34493e-08
6.21537e-08
5.2582e-08
4.78269e-08
4.75274e-08
5.8356e-08
5.02306e-08
2.32565e-08
5.34151e-08
6.64925e-09
6.09455e-08
6.14873e-08
5.05719e-08
1.07515e-08
6.47429e-08
6.47893e-08
6.37904e-08
6.07339e-08
6.06102e-08
6.64296e-08
2.83493e-08
5.62685e-08
5.6733e-08
1.03977e-08
9.90777e-09
1.18716e-08
3.01788e-08
5.22879e-08
5.32466e-08
3.35016e-08
6.50107e-08
3.10822e-08
3.07734e-08
6.08307e-08
6.35247e-08
3.29551e-08
5.99678e-08
6.33024e-08
5.64852e-08
5.57438e-08
3.86715e-08
4.70769e-08
5.77876e-08
6.07031e-08
4.78714e-08
1.30227e-08
1.1801e-08
6.47207e-08
3.90728e-08
6.28289e-08
1.82824e-08
1.70297e-08
5.78576e-08
4.74403e-08
3.07852e-08
6.25047e-08
9.29546e-09
5.31782e-08
5.29477e-08
5.2392e-08
2.2918e-08
6.51326e-08
5.69716e-08
4.32482e-08
4.17504e-08
5.70034e-08
6.56589e-08
5.72326e-08
3.70211e-08
3.26629e-09
3.55719e-09
6.30043e-08
2.36909e-08
5.78781e-08
6.50845e-08
6.4543e-08
5.3863e-08
5.71488e-08
6.05408e-08
3.16455e-08
9.76041e-09
1.12573e-08
4.69507e-08
4.62041e-08
6.27977e-08
6.003e-08
2.08818e-08
6.59505e-08
4.01574e-08
5.97647e-09
4.81209e-08
4.83663e-08
3.7343e-08
5.16291e-08
5.06693e-08
8.87212e-09
1.9409e-08
1.51722e-08
5.02028e-08
5.07886e-08
3.69406e-08
3.58445e-08
6.1828e-08
6.07914e-08
4.4484e-08
6.54585e-08
5.32852e-08
4.46415e-08
2.01732e-08
2.69846e-08
5.86137e-08
5.852e-08
4.201e-09
4.09278e-08
6.19131e-08
1.72534e-08
3.30222e-08
6.24228e-08
5.70364e-08
5.03916e-08
3.84264e-08
6.50389e-08
5.4731e-08
2.76045e-08
4.00111e-08
4.1864e-08
6.15841e-08
5.01468e-08
4.76876e-08
3.66792e-08
6.51247e-08
4.17926e-08
9.10362e-09
6.48338e-08
4.59203e-08
3.74799e-08
5.54894e-08
5.0063e-08
5.28907e-08
6.10655e-08
6.11022e-08
7.54786e-09
6.34386e-08
3.10611e-08
9.25039e-09
2.74441e-08
2.81188e-09
6.45673e-08
2.90526e-08
4.43466e-08
2.25524e-09
6.22869e-08
5.79973e-08
3.5976e-08
5.41478e-08
4.87006e-08
6.45382e-08
4.41225e-08
6.23667e-09
4.87515e-08
4.995e-08
5.37825e-09
5.7378e-08
2.65513e-08
6.42632e-08
6.30897e-08
6.638e-08
6.64634e-08
6.08568e-08
6.35699e-08
6.04694e-08
6.02309e-08
5.80684e-08
6.20257e-08
6.25778e-08
4.54141e-08
6.24494e-08
6.23537e-08
5.98311e-08
7.89238e-09
8.40396e-09
6.24956e-08
5.89107e-08
5.92652e-08
5.74741e-08
5.31863e-08
5.29568e-08
6.46357e-08
5.34998e-08
5.89864e-08
3.18957e-08
4.32143e-08
4.38179e-08
9.43616e-09
6.48691e-08
3.41994e-08
5.26312e-09
5.62642e-09
1.89442e-08
4.18336e-08
6.53145e-08
6.47606e-08
6.69544e-08
5.36828e-08
4.69219e-08
3.15612e-08
6.27551e-08
5.23349e-08
6.40262e-08
6.35067e-08
6.3358e-08
6.18619e-08
3.65131e-08
6.49992e-08
3.7741e-08
6.26766e-08
6.23634e-08
5.37236e-08
9.60623e-09
6.63726e-08
4.05949e-08
4.00266e-08
5.78326e-08
5.99821e-08
3.87709e-08
3.94048e-08
6.64038e-08
2.35669e-08
6.30056e-08
6.37288e-08
3.15078e-08
2.09816e-08
4.99543e-08
6.43895e-08
6.3881e-08
6.4433e-08
6.44187e-08
6.58112e-08
6.5701e-08
4.67283e-08
5.28154e-08
6.05228e-08
6.0342e-08
2.76774e-08
2.03833e-08
5.38324e-08
5.5306e-08
6.43216e-08
4.67474e-08
5.97895e-08
6.59815e-08
4.17822e-08
6.25575e-08
6.49793e-08
6.53076e-08
6.53226e-08
5.826e-08
6.65566e-08
3.27839e-08
3.06646e-08
2.1852e-08
6.17529e-08
6.18879e-08
5.81982e-08
6.47299e-08
4.89076e-08
5.5809e-08
4.89533e-08
4.09245e-08
5.60156e-08
5.62625e-08
3.42416e-08
3.4394e-08
3.40357e-08
5.2237e-08
5.28627e-08
5.59901e-08
6.59145e-08
2.96773e-08
8.08413e-09
6.20791e-08
6.65935e-08
2.38804e-08
2.47069e-08
6.35939e-08
5.21236e-08
5.27005e-08
5.78693e-08
5.08137e-08
5.14674e-08
6.53088e-08
2.01826e-08
6.11189e-08
6.10381e-08
6.30114e-08
6.03937e-08
6.05781e-08
6.48182e-08
6.00955e-08
3.10414e-08
6.55015e-08
1.7951e-08
6.09439e-08
1.98634e-08
2.23479e-08
6.51227e-08
6.06095e-08
6.081e-08
4.44722e-08
6.4397e-08
6.13621e-08
3.35736e-08
4.25308e-08
5.9745e-08
6.38309e-08
4.05046e-08
2.64392e-08
7.43151e-09
5.63069e-08
5.27184e-08
3.44652e-08
6.49346e-08
5.79937e-08
4.76956e-08
4.95901e-08
4.59731e-08
6.22885e-08
2.25864e-08
5.63387e-08
5.06438e-08
6.60421e-08
6.60906e-08
5.63694e-08
5.60667e-08
6.32061e-08
6.43238e-08
3.0843e-08
4.50521e-08
6.25348e-08
3.35688e-08
3.1715e-08
5.39548e-08
6.45048e-08
6.28274e-08
3.61044e-08
5.10087e-08
6.53171e-08
6.3991e-08
4.76051e-08
5.63026e-08
5.65229e-08
3.43833e-08
4.74369e-08
6.66815e-08
2.18425e-08
6.31895e-08
2.88944e-08
4.48163e-08
5.92348e-08
4.45396e-08
6.05732e-08
6.51113e-08
6.52318e-08
6.65807e-08
2.64955e-08
6.25813e-08
4.93143e-08
5.95706e-08
6.06345e-08
8.18819e-09
5.14695e-08
5.4245e-08
6.38953e-08
6.05302e-08
2.59041e-08
5.87596e-08
4.181e-08
2.8536e-08
5.84972e-08
1.47385e-08
4.18024e-08
4.54543e-08
5.53584e-08
4.8904e-08
6.38472e-08
1.65063e-08
6.39391e-08
3.13191e-08
6.6273e-08
6.32585e-08
3.85139e-08
3.79746e-08
6.3092e-08
1.82223e-08
5.19126e-08
6.69157e-08
6.49389e-08
6.52783e-08
6.27355e-08
6.5232e-08
6.04741e-08
2.01213e-08
6.19042e-08
6.34352e-08
6.6381e-08
4.28926e-08
4.38283e-08
6.49505e-08
6.03713e-08
6.04237e-08
2.15638e-08
6.59377e-08
5.03608e-08
2.17721e-08
4.10418e-08
6.60076e-08
3.43091e-08
6.60016e-08
6.45029e-08
6.43228e-08
6.50699e-08
4.64274e-08
6.30259e-08
1.00898e-08
3.49724e-08
5.51312e-08
3.36609e-08
2.33149e-08
1.189e-08
6.37205e-08
4.72094e-08
6.38404e-08
1.88533e-08
6.69975e-08
3.86403e-08
5.03688e-08
1.10083e-08
5.86607e-08
2.73857e-08
6.41652e-08
6.25359e-08
6.40384e-08
2.2039e-08
3.4733e-08
5.73871e-08
6.34522e-08
6.3281e-08
4.46949e-08
3.82913e-08
3.91864e-08
3.86707e-08
5.89851e-08
5.29282e-08
5.01847e-08
5.9387e-08
4.05929e-08
6.38789e-08
5.66413e-08
1.76931e-08
5.74761e-08
6.07527e-08
6.08644e-08
4.07045e-08
4.56378e-08
4.64898e-08
6.35942e-08
5.01579e-08
6.62933e-08
4.98714e-08
5.01482e-08
6.23904e-08
5.90682e-08
5.92719e-08
5.94239e-09
5.74677e-08
5.71417e-08
3.52791e-08
5.1518e-08
4.95223e-08
5.5848e-08
3.31639e-08
6.63776e-08
3.9037e-08
5.93715e-08
4.76332e-08
4.69372e-08
6.08088e-08
3.84312e-08
6.53787e-08
6.62588e-08
6.0066e-08
6.02248e-08
6.03841e-08
6.00955e-08
6.36563e-08
6.65316e-08
6.25079e-08
5.2137e-08
6.24824e-08
2.20319e-08
6.56066e-08
6.10465e-08
4.92932e-08
6.33187e-08
6.08072e-08
4.94938e-08
1.62066e-08
3.84635e-08
5.62009e-08
5.52479e-08
3.39528e-08
3.30944e-08
5.08886e-08
6.40534e-08
6.15188e-08
6.06151e-08
5.8308e-08
6.18912e-08
4.24809e-08
5.52958e-08
2.98617e-08
6.44065e-08
5.97998e-08
5.91611e-08
5.58617e-08
6.49837e-08
6.1307e-08
6.15394e-08
4.21362e-08
4.21996e-08
1.2571e-08
6.08343e-08
5.57502e-08
5.9261e-08
3.60033e-08
4.63783e-08
6.42105e-08
6.68797e-08
6.65996e-08
6.21216e-08
6.09762e-08
6.09063e-08
6.06974e-08
2.74873e-08
4.99321e-08
2.73334e-08
4.83697e-08
6.46685e-08
6.47007e-08
6.61121e-08
3.07415e-08
6.1931e-08
2.80373e-08
4.40743e-08
1.5586e-08
3.60313e-08
5.20559e-08
2.84124e-08
4.88246e-08
6.38775e-08
3.29543e-08
6.02956e-08
6.50696e-08
2.766e-08
3.01078e-08
6.63969e-08
5.83199e-08
2.78555e-08
6.29496e-08
6.64784e-08
6.65253e-08
5.37938e-08
5.24487e-08
2.70133e-08
3.59178e-08
6.27956e-08
6.05857e-08
6.35363e-08
5.81186e-08
6.30923e-08
3.6701e-08
5.08074e-08
6.10245e-08
6.48068e-08
2.21739e-08
3.49125e-08
6.2943e-08
3.99522e-08
2.51267e-08
6.40554e-08
6.39217e-08
3.71173e-08
6.44676e-08
6.42547e-08
3.21259e-08
6.63622e-08
4.32754e-08
3.00987e-08
3.1577e-08
6.52898e-08
4.19466e-08
3.00992e-08
5.58646e-08
5.69589e-08
5.6532e-08
6.05412e-08
6.06499e-08
6.51964e-08
4.75296e-08
6.69975e-08
5.94389e-08
6.52996e-08
5.57509e-08
6.31994e-08
2.18912e-08
6.64325e-08
6.14887e-08
2.98374e-08
6.39353e-08
4.81684e-08
6.44269e-08
6.44016e-08
3.48053e-08
6.50382e-08
3.24485e-08
3.34997e-08
3.1591e-08
3.16275e-08
6.46005e-08
5.82026e-08
5.85394e-08
1.6229e-08
3.56559e-08
6.42734e-08
6.42861e-08
6.01893e-08
5.70541e-08
5.04821e-08
2.75742e-08
6.40791e-08
6.42494e-08
6.19597e-08
6.09158e-08
1.9602e-08
4.76382e-08
6.34344e-08
6.29589e-08
1.38219e-08
4.95304e-08
6.17167e-08
6.39646e-08
6.09788e-08
6.07114e-08
2.91588e-08
3.3784e-08
6.40856e-08
6.42765e-08
6.28645e-08
7.15142e-09
1.85763e-08
3.70201e-08
6.30218e-08
5.62102e-08
6.6579e-08
6.68999e-08
1.94796e-08
1.68351e-08
4.27466e-08
6.70525e-08
5.74051e-08
5.46693e-08
5.19052e-08
6.01422e-08
5.58214e-08
3.88386e-08
6.17569e-08
6.36951e-08
5.54023e-08
4.84607e-08
4.88693e-08
6.37853e-08
4.93269e-08
4.93875e-08
6.66136e-08
3.22451e-08
5.2472e-08
5.4989e-08
5.77849e-08
5.04525e-08
6.45878e-08
3.0813e-08
5.58959e-08
6.06548e-08
2.01857e-08
6.42645e-08
4.87323e-08
5.53823e-08
6.49136e-08
2.42279e-08
6.17169e-08
6.45299e-08
2.28824e-08
4.20385e-08
6.47844e-08
6.56598e-08
5.30591e-08
5.70724e-08
3.56329e-08
6.33979e-08
1.10871e-08
9.30967e-09
6.30824e-08
5.70378e-08
6.50114e-08
6.43698e-08
3.05897e-08
5.1087e-08
6.3081e-08
6.47815e-08
5.00003e-08
3.87056e-08
6.57393e-08
5.12957e-08
6.15506e-09
5.21118e-09
6.57933e-08
5.63445e-08
5.66765e-08
4.3322e-08
4.74538e-08
1.73497e-08
6.08353e-08
3.16038e-08
5.1945e-08
2.8163e-08
6.17486e-08
5.98322e-08
6.30747e-08
3.09127e-08
3.64775e-08
4.84121e-08
3.57517e-08
6.2705e-08
1.75017e-08
6.45226e-08
4.81273e-08
6.37089e-08
6.10528e-08
5.4678e-08
5.19597e-08
8.65032e-09
3.00932e-08
3.33137e-08
3.68432e-08
1.81967e-08
3.79271e-08
6.46008e-08
6.2761e-08
5.03575e-08
5.05522e-08
6.64677e-08
4.34667e-08
5.43601e-08
5.39282e-08
6.34868e-08
2.8618e-08
2.54741e-08
5.78787e-08
5.5682e-08
6.25635e-08
5.69719e-08
6.20021e-08
6.24252e-08
5.28791e-08
5.50784e-08
2.12973e-08
2.16847e-08
3.89315e-08
5.20152e-08
6.5877e-08
3.69507e-08
5.45934e-08
6.38805e-08
5.82345e-08
5.37487e-08
5.38433e-08
3.40608e-08
5.43877e-08
4.48536e-08
6.39523e-08
6.09609e-08
5.64123e-08
6.55048e-08
5.77458e-08
4.51373e-08
3.16004e-09
6.6885e-08
6.26313e-08
1.01958e-08
5.68377e-08
2.38065e-08
6.64471e-08
1.82234e-08
4.55058e-08
6.33407e-08
1.09884e-08
5.52921e-08
6.03009e-08
6.46141e-08
6.49374e-08
6.49233e-08
4.89749e-08
6.54071e-08
4.6842e-08
6.19282e-08
6.10338e-08
8.84341e-09
6.45674e-08
4.71526e-08
6.17361e-08
6.46684e-08
2.15248e-08
3.72923e-08
5.26944e-08
6.09302e-08
6.44382e-08
6.47644e-08
5.09945e-08
5.06615e-08
5.93213e-08
6.70093e-09
6.15878e-08
6.35899e-08
3.69381e-08
6.28397e-08
3.38262e-08
4.90359e-08
4.38393e-09
6.10952e-08
2.50478e-08
5.70833e-08
3.62607e-08
6.6515e-08
6.26702e-08
6.09715e-08
3.68889e-08
3.83038e-08
6.01355e-08
1.77526e-08
2.59595e-08
2.51441e-08
2.47381e-08
4.35545e-08
5.97809e-08
4.42963e-08
3.90408e-08
4.00511e-08
3.06344e-08
6.14366e-08
6.13878e-08
3.94567e-08
6.05913e-08
6.54543e-08
7.38086e-09
6.4952e-08
5.78925e-08
5.68633e-08
5.84112e-08
6.25606e-08
6.32168e-08
6.12244e-08
6.12423e-08
3.72977e-08
6.183e-08
5.82423e-08
6.06111e-08
5.49525e-08
5.43209e-08
5.51201e-08
2.76362e-08
5.05431e-08
5.07748e-08
6.34478e-08
2.73837e-08
4.41796e-08
5.00224e-08
3.43771e-08
3.31496e-08
4.80146e-08
2.20236e-08
6.12125e-08
4.07112e-08
5.59746e-08
5.57132e-08
3.85032e-08
5.76964e-08
2.57262e-08
4.82021e-08
6.39959e-08
2.72926e-08
6.57687e-08
3.67859e-08
3.45917e-08
4.70748e-08
6.66487e-08
4.85194e-08
6.44987e-08
6.42802e-08
5.67386e-08
4.86691e-08
6.07213e-08
6.434e-08
5.62519e-08
7.5219e-09
2.84196e-08
5.59035e-08
6.22733e-08
6.00499e-08
5.96078e-08
5.79838e-08
2.24499e-08
6.2735e-08
5.11989e-08
6.35175e-08
3.51801e-08
6.4605e-08
4.88052e-08
5.46919e-08
5.4712e-08
5.56033e-08
5.69846e-08
5.63519e-08
5.60934e-08
5.82103e-08
2.00337e-08
5.74114e-08
5.04387e-09
6.38679e-08
6.38944e-08
6.38667e-08
5.22182e-08
5.80722e-08
5.02652e-08
6.6182e-08
6.05726e-08
5.99922e-08
5.688e-08
1.73759e-08
6.29537e-08
2.5454e-08
6.28868e-08
6.66135e-08
5.3787e-08
5.38772e-08
3.9537e-08
3.91279e-09
5.53623e-08
2.95962e-08
6.32069e-08
6.39913e-08
6.4112e-08
6.38946e-08
5.25122e-08
5.26055e-08
6.65333e-08
6.42756e-08
6.05914e-08
6.70171e-08
6.27673e-08
6.53383e-08
4.36341e-08
4.52581e-08
5.66683e-09
3.99628e-08
1.67822e-08
6.07987e-08
1.83003e-08
6.42993e-08
3.79648e-08
6.516e-08
6.53401e-08
6.38806e-08
6.08235e-08
2.16308e-08
5.39765e-08
5.10592e-08
6.21886e-08
4.59546e-08
6.21429e-08
3.74384e-08
4.01081e-08
5.02413e-08
1.0996e-08
6.42435e-08
2.1716e-08
2.15723e-08
5.27034e-08
6.54887e-08
6.40059e-08
3.42e-08
4.78393e-08
5.83106e-08
4.56196e-08
5.30153e-08
2.42855e-08
1.40488e-08
6.43864e-08
4.61553e-08
5.23672e-08
4.12505e-08
3.8962e-08
3.83708e-08
5.36393e-08
6.67577e-08
6.58306e-08
5.35664e-08
2.7037e-08
3.46405e-08
6.11157e-08
6.44278e-08
6.44083e-08
1.98695e-08
2.03419e-08
6.49662e-08
6.48505e-08
6.52851e-08
4.66346e-08
4.75053e-08
5.38127e-08
1.8633e-08
3.4899e-08
6.17865e-08
3.47835e-08
3.48425e-08
6.18008e-08
5.57679e-08
4.92618e-08
4.93212e-08
6.0592e-08
5.58943e-08
5.83476e-08
1.60749e-08
3.1613e-08
4.138e-08
4.08066e-08
6.20508e-08
3.83303e-08
6.39288e-08
5.05818e-08
4.88589e-08
5.79541e-08
9.39513e-09
5.43813e-08
2.97081e-08
5.63363e-08
6.11229e-08
5.98391e-09
5.31073e-09
6.24788e-08
1.60319e-08
6.43252e-08
1.05203e-08
5.37075e-08
5.89464e-08
6.55215e-08
6.39373e-08
4.24268e-08
5.81259e-08
3.91868e-08
6.02448e-08
5.8653e-08
5.90874e-08
4.25948e-08
4.16252e-08
6.55139e-08
1.3859e-08
2.88206e-08
6.54937e-08
6.65228e-08
6.59509e-08
6.18607e-08
6.35003e-09
3.96183e-08
4.00876e-08
1.85927e-08
6.03681e-08
5.13091e-08
5.50027e-08
5.72894e-08
2.34333e-08
5.70591e-08
3.6338e-08
3.80348e-08
6.63136e-08
3.33504e-08
5.9911e-08
5.38737e-08
3.53511e-08
3.14173e-08
6.37024e-08
2.43401e-08
1.83991e-08
6.39517e-08
5.12617e-08
6.22055e-08
5.99118e-08
8.17782e-09
4.86669e-08
3.96908e-08
6.25895e-08
6.07044e-08
6.11e-08
6.0259e-08
6.44106e-08
3.92766e-08
6.07505e-08
3.20218e-08
4.91772e-08
6.03052e-08
5.48437e-08
3.70198e-08
3.55025e-09
5.41492e-08
6.37191e-08
6.7082e-08
5.2929e-08
5.33514e-08
1.71431e-08
6.09329e-08
5.29939e-08
3.75115e-08
4.90033e-08
2.82653e-08
5.7949e-08
6.09614e-08
6.10224e-08
5.41749e-08
4.81636e-08
6.24299e-08
6.09329e-08
3.88856e-08
3.61596e-08
2.56568e-08
1.89212e-08
5.148e-08
6.05773e-08
5.79037e-08
3.91179e-08
5.25263e-08
6.08268e-08
3.40045e-08
6.38595e-08
3.20941e-08
1.02806e-08
3.41521e-08
6.36221e-08
3.08495e-08
5.78771e-08
5.15473e-08
4.67194e-08
5.67899e-08
5.16637e-08
5.13529e-08
4.67335e-08
4.72299e-08
5.23099e-08
9.18524e-09
6.37013e-08
6.29372e-08
2.79077e-08
6.49606e-08
2.69846e-08
3.2072e-08
4.28211e-08
6.68429e-08
6.10178e-08
1.78757e-08
1.49256e-08
4.90509e-08
5.96528e-08
6.05506e-08
5.64642e-08
4.25477e-08
2.18445e-08
6.57972e-08
6.57352e-08
5.01169e-09
5.12157e-08
2.00894e-08
5.24025e-08
6.32689e-08
6.30538e-08
6.11908e-08
5.87013e-08
6.30826e-08
4.27421e-08
5.90298e-08
5.5344e-08
5.54211e-08
2.88784e-08
4.81828e-08
5.55269e-08
6.36801e-08
4.1891e-08
4.84644e-08
4.86011e-08
3.96588e-08
4.24997e-08
4.21632e-08
3.22415e-08
6.32334e-08
6.42692e-08
5.49727e-08
5.31884e-08
5.09437e-08
5.06117e-08
4.14627e-08
4.56672e-08
6.35824e-08
6.32459e-08
5.82581e-08
5.51557e-08
5.56871e-08
4.20478e-08
6.58918e-08
6.58389e-08
6.31615e-08
4.11997e-08
5.37138e-08
5.46812e-08
5.45765e-08
5.48304e-08
1.6673e-08
6.25675e-08
6.41009e-08
1.31355e-08
1.20458e-08
5.64069e-08
6.49581e-08
6.48209e-08
3.93692e-08
6.38066e-08
5.64439e-08
2.16339e-08
5.54191e-08
5.68917e-08
6.55738e-08
6.55195e-08
6.51634e-08
6.43182e-08
3.79488e-08
6.22213e-08
3.68805e-08
3.72989e-08
5.86554e-08
4.87335e-08
6.26592e-08
4.009e-08
5.59054e-08
5.41372e-08
1.74624e-08
2.15526e-08
3.92564e-08
1.09967e-08
5.26804e-08
1.06373e-08
5.47625e-08
6.23663e-08
2.13968e-08
4.70058e-08
4.68678e-08
6.48453e-08
4.20532e-08
6.00284e-08
6.44769e-08
7.73334e-09
6.35146e-08
6.44284e-08
6.61558e-08
5.93993e-08
5.92203e-08
4.38851e-08
6.16558e-08
6.66005e-08
4.48847e-08
6.35297e-08
6.34759e-08
3.69383e-08
3.78813e-08
6.38843e-08
4.02852e-08
6.59382e-08
6.45524e-08
6.43633e-08
6.45424e-08
1.87491e-08
6.44302e-08
6.34516e-08
1.07078e-08
1.96782e-08
4.71114e-08
6.23966e-08
4.88983e-08
5.84165e-08
5.54709e-08
4.99465e-08
5.81443e-08
5.70619e-08
6.37293e-08
6.33625e-08
5.82121e-08
6.39854e-08
6.68435e-08
6.59292e-08
3.80889e-08
6.44382e-08
6.42023e-08
6.42215e-08
4.40423e-08
4.49692e-08
6.41648e-08
5.28706e-08
6.44262e-08
6.27196e-08
5.68271e-08
6.69869e-08
2.99577e-08
4.37316e-08
6.2553e-08
5.60074e-08
5.64176e-08
3.63282e-08
4.93116e-08
5.41799e-08
6.32661e-08
2.92211e-08
5.75022e-08
6.498e-08
6.60668e-08
6.61214e-08
6.09419e-08
6.63242e-08
6.37556e-08
3.51775e-08
6.47524e-08
6.10855e-08
6.25869e-08
4.91389e-08
6.64545e-08
4.30961e-08
3.74574e-08
6.33607e-08
6.32808e-08
5.73198e-08
8.11894e-09
5.66353e-08
4.35002e-08
4.91344e-08
5.24613e-08
5.26891e-08
5.26423e-08
4.12717e-08
5.41878e-08
6.62834e-08
6.44968e-08
4.85768e-08
5.87822e-08
4.52118e-08
4.35447e-08
6.26567e-08
5.0774e-08
5.00867e-08
4.86565e-08
4.2586e-08
6.12495e-08
5.5391e-08
6.09455e-08
6.65797e-08
4.7632e-08
6.44058e-08
6.49786e-08
6.49617e-08
1.48398e-08
4.88742e-08
4.86706e-08
8.71147e-09
4.27912e-08
3.22798e-08
6.01559e-08
6.20001e-08
6.35995e-08
5.22149e-08
2.50272e-08
2.57601e-08
6.33746e-08
5.1959e-08
6.54248e-08
2.7517e-08
6.56887e-08
6.56638e-08
6.39348e-08
5.81174e-08
4.11409e-08
1.17954e-08
2.40251e-08
4.61479e-08
4.74829e-08
6.15263e-08
1.74261e-08
1.78802e-08
2.06261e-08
6.44824e-08
6.45601e-08
6.0533e-08
5.45138e-08
4.50788e-08
4.705e-08
4.16954e-08
3.46368e-08
4.59913e-08
2.98565e-08
5.64142e-08
6.17777e-08
5.85727e-08
5.84038e-08
6.43923e-08
3.01999e-08
4.58523e-08
6.0527e-08
3.91772e-08
3.46249e-08
3.86986e-08
2.14957e-08
5.76543e-08
5.81208e-08
6.32591e-08
3.84736e-08
4.81514e-08
6.50461e-08
6.5049e-08
4.61531e-08
4.48134e-08
1.95052e-08
6.18469e-08
4.07291e-08
9.81317e-09
5.7499e-08
3.77098e-08
2.30771e-08
9.90502e-09
5.97536e-08
5.97987e-08
2.67954e-08
6.44839e-08
8.51583e-09
6.60746e-08
6.17391e-08
3.67429e-08
6.18814e-08
6.16786e-08
5.24097e-08
6.4108e-08
2.9121e-08
3.50315e-08
5.27177e-08
4.92846e-08
6.60913e-08
6.46808e-08
5.4257e-08
1.82959e-08
2.37628e-08
6.5276e-08
6.53012e-08
6.51552e-08
6.70918e-08
3.44962e-08
6.09208e-08
3.27413e-08
3.2517e-08
6.03789e-08
6.36553e-08
6.39943e-08
6.54507e-08
2.55008e-08
2.9246e-08
1.19166e-08
4.95223e-08
4.94077e-08
5.42835e-08
5.72428e-08
5.33344e-08
6.70061e-08
2.32066e-08
6.18601e-08
5.31815e-08
6.68132e-08
1.87905e-08
6.06332e-08
4.28681e-08
3.17459e-08
3.48897e-08
1.47699e-08
5.58837e-08
5.7032e-08
1.91796e-08
2.11926e-08
1.20453e-08
1.79369e-08
6.09141e-08
3.56058e-08
2.79545e-08
2.9389e-08
6.2757e-08
1.8235e-08
5.69561e-08
6.61486e-08
6.15632e-09
6.2164e-08
4.72103e-08
1.98056e-08
5.17815e-08
3.89248e-08
5.49403e-08
5.19534e-08
2.17839e-08
6.3758e-08
6.15055e-08
6.29667e-08
6.06447e-08
6.53191e-08
6.70523e-08
1.7375e-08
5.39472e-08
6.29025e-08
3.80725e-08
3.54298e-08
6.24709e-08
6.31921e-08
5.85132e-08
4.55602e-08
6.15105e-08
6.37867e-08
6.37513e-08
6.57771e-08
6.19713e-08
2.18332e-08
2.32563e-08
5.2354e-08
6.20735e-08
6.32763e-08
6.33124e-08
6.47224e-08
6.45345e-08
5.25781e-08
6.4773e-08
5.68581e-08
5.6987e-08
5.76503e-08
6.02223e-08
1.70933e-08
6.66769e-08
6.16852e-08
2.1293e-08
6.31676e-08
3.71523e-08
6.20634e-08
2.90529e-08
6.47912e-08
6.6151e-08
6.27862e-08
3.62501e-08
3.44009e-08
6.4776e-08
6.62986e-08
6.20639e-08
6.32063e-08
1.17749e-08
3.7685e-08
5.89048e-08
5.71469e-08
5.48094e-08
5.44003e-08
6.24177e-08
6.67408e-08
5.69037e-08
6.46442e-08
5.49932e-08
6.59601e-08
5.75074e-08
5.74481e-08
6.18755e-08
5.16847e-08
5.97326e-08
4.86936e-08
6.07708e-08
1.26451e-08
3.17224e-08
6.2378e-08
2.27855e-08
4.61171e-08
4.22809e-08
1.33885e-08
6.06846e-08
5.23812e-08
6.46868e-08
6.14351e-08
4.1075e-08
4.39916e-09
5.99011e-08
6.30167e-08
3.91356e-08
2.27872e-08
3.39972e-08
3.34194e-08
3.61237e-08
4.75237e-08
6.10222e-08
6.31494e-08
5.22045e-08
3.93995e-08
5.92591e-08
6.46818e-08
6.16164e-08
5.57656e-08
6.15019e-08
5.44744e-08
5.64002e-09
6.09724e-08
4.46856e-08
4.34828e-08
2.94743e-08
4.10567e-08
6.70259e-08
6.70468e-08
5.64801e-08
9.85841e-09
4.11178e-08
6.45223e-08
2.03626e-08
6.18676e-08
6.45388e-08
2.77999e-08
2.93251e-08
1.16485e-08
3.32512e-08
6.64684e-08
6.44104e-08
5.53593e-08
6.5914e-08
6.06259e-08
5.18407e-08
6.65612e-08
6.34293e-08
5.73061e-08
6.43667e-08
3.44387e-08
6.45491e-08
2.50484e-08
2.56252e-08
3.70897e-08
5.3574e-08
6.48102e-08
6.03118e-08
5.84209e-08
1.68794e-08
6.61543e-08
6.42413e-08
5.05165e-08
5.1008e-08
4.57431e-08
4.51479e-08
5.77536e-08
5.81564e-08
5.42385e-08
6.53115e-08
2.3381e-08
6.08036e-08
1.01622e-08
5.19219e-08
5.95566e-08
1.94124e-08
6.46339e-08
6.44567e-08
6.29774e-08
6.45278e-08
6.4545e-08
6.42546e-08
5.92139e-08
6.70856e-08
5.64917e-08
5.13829e-08
6.62143e-08
5.57536e-08
6.22147e-08
3.38258e-08
3.67563e-08
3.8605e-08
5.63321e-08
6.6843e-08
6.68837e-08
3.89445e-08
5.11928e-08
6.41025e-08
5.70933e-08
6.10479e-08
1.74155e-08
2.95173e-08
2.92272e-08
2.90196e-08
6.69689e-08
5.48627e-08
5.59354e-08
4.58746e-08
6.07516e-08
6.24167e-08
6.51305e-08
6.45557e-08
2.01741e-08
1.95206e-08
3.89441e-08
3.38773e-08
6.51542e-08
6.33396e-08
5.43582e-08
7.83574e-09
6.43789e-08
3.07097e-08
4.53745e-08
3.89791e-09
4.51589e-08
4.38554e-08
5.67768e-08
2.36159e-08
5.88436e-08
5.86542e-08
5.87579e-08
5.59457e-08
5.1544e-08
6.19737e-08
6.45977e-08
3.52623e-08
6.58139e-08
6.64027e-08
2.96018e-08
6.18612e-08
3.55047e-08
5.50042e-08
5.46235e-08
6.29854e-08
6.31824e-08
4.64125e-08
5.99045e-08
6.02884e-08
6.0542e-08
3.04272e-08
4.07525e-08
4.18487e-08
6.15023e-08
1.56189e-08
6.00644e-08
3.98264e-08
3.85524e-08
5.99769e-08
5.60879e-08
6.31809e-08
6.67544e-09
6.19918e-08
6.18404e-08
5.11907e-08
1.90295e-08
6.5428e-08
6.31747e-08
5.23861e-08
6.62506e-08
5.23051e-08
6.20492e-08
4.88718e-08
6.32166e-08
3.62666e-08
2.87116e-08
2.94993e-08
6.34834e-08
3.74399e-08
5.95761e-08
5.49568e-08
5.92318e-08
3.72001e-08
4.52153e-08
5.39125e-08
6.44004e-08
6.4437e-08
6.12435e-08
5.53589e-08
5.87072e-08
2.49953e-08
6.56013e-08
4.83845e-08
4.82508e-08
3.11232e-08
6.36259e-08
4.06055e-08
2.29767e-08
5.41638e-08
6.41102e-08
6.4164e-08
6.04281e-08
6.47163e-08
6.65231e-08
5.27851e-08
2.73666e-08
5.78944e-08
9.59438e-09
2.77524e-08
5.19692e-08
5.19508e-08
6.4738e-09
6.65396e-08
2.83983e-08
1.30772e-08
6.45182e-08
3.38752e-08
6.25039e-08
2.20538e-08
4.62735e-08
6.41187e-08
6.51966e-08
6.67239e-08
6.46072e-08
5.40207e-08
6.45246e-08
6.24953e-08
6.22336e-08
6.39859e-08
6.55101e-08
3.86204e-08
5.1644e-08
2.39855e-08
5.79621e-08
3.3799e-08
2.40856e-08
4.32486e-08
3.66417e-08
6.44234e-08
5.12216e-08
5.18753e-08
2.03565e-08
5.48298e-08
6.57757e-08
5.27256e-08
3.88133e-09
4.7698e-09
6.57238e-08
5.57389e-08
6.66994e-09
4.34176e-08
6.37444e-08
6.21182e-08
2.50513e-08
5.7801e-08
6.44823e-08
6.43007e-08
2.48049e-08
2.69032e-08
9.51901e-09
5.50783e-08
5.51254e-08
6.37302e-08
5.15998e-08
5.16109e-08
5.01198e-09
1.93452e-08
4.50582e-08
3.12631e-09
5.48506e-08
6.45062e-08
1.98108e-08
2.22136e-08
8.79682e-09
6.44089e-08
6.32307e-08
6.33517e-08
6.58902e-08
6.57893e-08
6.07686e-08
3.54131e-08
3.49096e-08
6.44687e-08
6.45101e-08
6.41196e-08
6.46381e-08
6.70106e-08
6.1793e-08
6.15065e-08
5.14757e-08
1.98613e-08
4.57073e-08
4.95663e-08
2.96125e-08
5.48296e-08
6.41356e-08
6.34697e-08
3.75176e-08
5.31892e-08
6.45029e-08
6.65692e-08
6.7074e-08
1.83041e-08
4.17088e-08
5.68324e-08
2.93684e-08
6.41555e-08
6.45025e-08
5.0753e-08
5.08499e-08
3.90781e-08
5.45549e-08
5.9174e-08
3.75027e-08
6.45135e-08
6.07967e-08
6.04877e-08
6.01367e-08
5.97311e-08
1.13148e-08
3.88497e-08
4.03534e-08
5.97566e-08
6.54355e-08
5.18381e-08
1.5769e-08
1.2264e-08
1.27752e-08
3.68383e-08
2.69095e-08
6.24261e-08
6.34546e-08
5.8762e-08
1.48811e-08
5.83782e-08
6.61982e-08
6.45584e-08
5.51157e-08
6.5658e-08
6.68892e-08
6.69381e-08
5.56653e-08
6.28618e-08
6.07793e-08
1.68946e-08
6.35246e-08
6.28852e-08
3.87722e-08
4.15152e-08
5.42069e-08
5.86662e-08
5.85406e-08
6.25001e-08
5.17442e-08
6.27822e-08
2.03472e-08
4.00702e-08
4.07085e-08
4.78239e-08
4.80468e-08
4.66475e-08
4.56109e-08
3.76136e-08
5.14519e-08
1.72313e-08
1.90224e-08
6.62135e-08
6.58848e-08
6.59613e-08
6.56503e-08
7.23132e-09
6.15549e-09
6.02433e-08
5.88556e-08
4.83071e-08
3.41837e-08
2.91863e-08
6.00469e-08
5.10521e-08
5.69338e-08
6.09497e-08
3.2108e-09
2.47209e-08
4.78388e-08
5.72122e-08
5.73883e-08
4.95924e-08
6.49315e-08
6.58392e-08
2.94819e-09
3.25749e-09
6.47089e-08
2.36746e-08
6.24345e-08
3.91667e-08
2.8754e-08
5.19058e-08
6.13908e-08
5.81049e-08
3.64669e-08
3.37632e-08
6.39782e-08
5.62678e-08
6.14893e-08
1.73146e-08
6.57014e-08
3.56838e-08
3.62277e-08
6.27363e-08
4.7327e-08
6.13196e-08
5.76165e-08
5.74851e-08
2.69171e-08
3.91516e-08
1.89808e-08
7.96452e-09
8.31958e-09
7.8562e-09
6.49641e-08
6.49739e-08
5.5658e-08
5.72233e-08
6.25733e-08
6.38172e-08
6.39637e-08
5.35231e-08
4.50089e-08
9.15745e-09
6.55643e-08
6.31752e-08
5.04201e-08
5.35211e-08
5.34373e-08
3.31032e-08
5.41947e-08
6.03036e-08
4.29599e-08
6.15455e-08
6.41643e-08
6.58567e-08
6.31062e-08
2.64499e-09
4.48324e-08
6.70904e-08
5.80926e-08
5.75596e-08
5.37903e-08
5.84261e-08
5.84726e-08
3.88631e-08
2.6212e-08
5.81965e-08
4.69856e-08
5.59532e-08
5.64824e-08
6.08692e-08
4.98673e-08
5.43623e-08
4.83301e-08
4.83285e-08
3.95159e-08
6.43976e-08
6.09838e-08
6.52705e-08
6.55673e-08
1.84625e-08
5.88554e-08
3.18554e-08
3.44663e-08
5.88741e-08
4.60429e-08
6.17513e-08
5.37973e-08
3.61885e-08
3.94147e-08
6.42445e-09
4.0799e-08
2.89795e-08
6.55073e-08
6.18791e-08
6.38458e-08
4.91591e-09
4.42702e-09
6.44113e-08
5.39444e-08
3.05003e-08
5.69809e-08
5.84703e-08
5.81033e-08
6.66839e-08
6.2268e-08
4.14339e-08
4.26819e-08
4.36121e-08
6.70651e-08
6.60774e-08
6.2764e-08
6.27975e-08
5.99786e-08
5.94841e-08
3.7292e-08
4.62392e-08
3.6906e-08
5.39688e-08
5.63225e-08
5.42518e-08
6.44548e-08
6.40441e-08
6.41328e-08
6.4072e-08
6.37957e-08
6.45321e-08
1.70863e-08
4.79069e-08
5.03726e-08
6.03953e-08
6.02658e-08
6.16367e-08
1.94461e-08
3.62145e-08
4.77371e-08
4.87224e-08
1.15193e-08
4.48983e-08
2.99292e-08
5.5456e-08
3.71424e-08
3.74641e-08
3.46191e-08
6.39491e-08
6.48668e-08
6.59506e-08
6.4089e-08
6.07911e-08
4.23945e-08
4.03384e-08
5.76872e-08
5.83026e-08
3.55502e-08
1.79761e-08
1.95824e-08
5.94994e-08
4.46976e-08
4.46079e-08
1.88364e-08
2.03145e-08
6.38121e-08
2.49776e-08
2.58657e-08
3.08961e-08
6.32366e-08
5.98742e-08
7.4117e-09
2.93447e-08
5.86093e-08
5.71118e-08
3.71424e-08
4.46396e-08
5.39737e-08
6.50103e-08
1.47693e-08
4.23568e-08
5.23349e-08
1.11761e-08
5.99657e-08
6.08255e-08
5.24562e-08
5.59285e-08
6.54989e-08
6.54809e-08
6.08911e-08
3.86323e-08
3.39226e-08
4.30915e-08
5.70437e-08
6.37615e-08
3.86247e-08
5.05347e-08
6.20024e-08
5.8195e-08
1.40389e-08
3.81868e-08
4.99337e-08
3.75557e-08
1.77428e-08
5.10253e-08
3.13884e-08
5.81751e-08
5.31206e-08
6.53172e-08
5.06394e-08
6.10351e-08
6.33774e-08
4.93568e-08
5.41051e-08
2.68471e-08
2.54939e-08
3.81749e-08
5.00307e-08
4.33561e-08
9.1224e-09
5.85089e-08
5.51924e-08
5.74614e-08
9.89194e-09
5.2814e-08
6.05639e-08
6.60035e-08
6.59527e-08
6.33815e-08
3.30417e-08
5.7241e-08
1.6006e-08
1.54311e-08
5.20743e-08
6.18262e-08
6.43996e-08
6.30157e-08
6.32046e-08
6.22216e-08
6.21816e-08
6.05014e-08
3.92424e-08
6.50932e-08
6.12349e-08
5.22755e-08
5.53129e-08
6.55399e-08
6.49326e-08
6.04384e-08
6.11614e-08
5.15448e-08
5.40448e-08
6.14583e-08
6.43822e-08
1.66973e-08
4.08387e-08
6.31394e-09
1.07437e-08
1.01507e-08
5.72407e-08
5.77623e-08
5.78094e-08
5.82269e-08
5.98305e-08
1.24518e-08
5.85779e-08
1.8666e-08
1.86096e-08
4.83362e-08
3.97895e-08
6.68672e-08
4.5013e-08
6.12471e-08
4.42182e-08
6.49177e-09
5.77569e-08
3.42934e-08
6.08525e-08
6.01029e-08
6.53191e-08
6.51987e-08
4.61983e-08
5.27496e-08
6.49568e-08
3.2342e-08
4.3949e-08
5.23156e-08
4.20969e-08
1.89751e-08
1.5038e-08
5.65597e-08
6.10213e-08
6.32053e-08
6.11674e-08
5.45665e-08
5.98284e-08
7.48507e-09
6.65201e-08
6.65701e-08
1.70303e-08
6.44411e-08
1.10754e-08
2.67732e-08
6.38054e-08
6.4698e-08
6.02605e-08
5.99988e-08
6.16067e-08
4.96618e-08
4.96495e-08
6.44283e-08
6.43287e-08
6.33724e-08
5.47463e-08
5.3288e-08
6.59251e-08
6.59313e-08
6.38962e-08
5.45132e-08
1.86287e-08
5.63585e-08
6.2863e-08
5.99897e-08
1.60195e-08
5.3128e-08
5.42736e-08
2.32596e-08
4.85129e-08
4.69263e-08
5.33649e-08
3.53231e-08
6.31224e-08
6.27008e-08
6.2216e-08
4.21992e-09
6.31938e-08
6.49799e-08
1.6199e-08
1.68276e-08
4.12646e-08
4.42883e-08
4.4572e-08
6.30946e-08
5.46287e-08
4.2404e-08
6.28022e-08
1.89392e-08
5.96499e-08
1.79395e-08
5.29198e-08
5.27921e-08
4.1192e-08
3.82683e-08
6.44967e-08
6.03321e-08
5.99963e-08
5.80665e-08
4.54579e-08
3.70177e-08
6.63965e-08
3.66155e-08
6.14591e-08
6.57092e-08
5.88884e-08
1.62027e-08
6.03487e-08
6.10271e-08
5.91803e-08
4.32321e-08
3.73745e-09
6.53325e-08
5.01737e-08
6.63575e-08
7.84618e-09
6.70598e-08
2.06414e-08
5.24321e-08
4.9675e-08
1.896e-08
5.85745e-08
6.43515e-08
2.37627e-08
2.51419e-08
1.92041e-08
4.54159e-08
2.64749e-08
2.73511e-08
1.7168e-08
3.97867e-08
6.39727e-08
6.40648e-08
5.22567e-08
1.32901e-08
1.57876e-08
3.26851e-08
5.20372e-08
6.30167e-08
6.61013e-08
6.61526e-08
4.04308e-08
5.42706e-08
1.90669e-08
1.97774e-08
2.08063e-08
6.70368e-08
6.09776e-08
5.72311e-08
6.08965e-08
6.49007e-08
6.48837e-08
5.52503e-08
5.58506e-08
3.63552e-08
3.6987e-08
2.3847e-08
5.75485e-08
6.42445e-08