/*--------------------------------*- C++ -*----------------------------------*\
  =========                 |
  \\      /  F ield         | OpenFOAM: The Open Source CFD Toolbox
   \\    /   O peration     | Website:  https://openfoam.org
    \\  /    A nd           | Version:  7
     \\/     M anipulation  |
\*---------------------------------------------------------------------------*/
FoamFile
{
    version     2.0;
    format      ascii;
    class       volVectorField;
    location    "4";
    object      U;
}
// * * * * * * * * * * * * * * * * * * * * * * * * * * * * * * * * * * * * * //

dimensions      [0 1 -1 0 0 0 0];

internalField   nonuniform List<vector> 
13182
(
(0.5 -2.21899e-12 -4.71979e-28)
(0.5 5.22232e-12 0)
(0.5 -3.2026e-11 -1.57935e-27)
(0.5 -1.48336e-12 3.70586e-27)
(0.5 1.66331e-11 -1.6427e-28)
(0.5 -4.41914e-13 -1.81904e-27)
(0.5 3.19365e-12 -3.50929e-27)
(0.5 1.7026e-12 4.07989e-27)
(0.5 -1.37603e-12 2.14507e-27)
(0.5 -1.21965e-11 -1.85446e-27)
(0.5 -8.68132e-13 0)
(0.5 -9.96363e-14 1.39561e-29)
(0.5 -4.14413e-12 2.12258e-28)
(0.5 -4.45104e-12 4.04446e-27)
(0.5 2.52141e-12 0)
(0.5 1.76977e-12 -1.79849e-27)
(0.5 -2.39631e-12 1.03767e-27)
(0.5 9.92938e-12 0)
(0.5 3.8283e-12 3.52308e-27)
(0.5 6.66551e-12 0)
(0.5 -2.57738e-11 1.58164e-27)
(0.5 2.06624e-12 0)
(0.5 -3.51673e-12 -1.12486e-28)
(0.5 -8.60173e-12 -6.54068e-27)
(0.5 8.15269e-12 -3.81993e-28)
(0.5 1.60474e-11 0)
(0.5 7.37567e-12 0)
(0.5 -1.01292e-11 0)
(0.5 -6.42988e-12 -6.0561e-28)
(0.5 1.04508e-11 6.63758e-27)
(0.5 1.13608e-11 0)
(0.5 -1.03129e-12 -3.88733e-27)
(0.5 2.39222e-12 8.67938e-28)
(0.5 1.12576e-11 -8.63628e-28)
(0.5 3.76587e-11 2.4265e-27)
(0.5 2.124e-11 0)
(0.5 3.43499e-12 0)
(0.5 -1.75917e-11 2.62852e-27)
(0.5 -1.16999e-11 0)
(0.5 -6.55189e-12 1.90524e-27)
(0.5 2.54418e-11 5.6933e-29)
(0.5 -5.59183e-11 -4.3772e-28)
(0.5 2.3478e-12 -1.60029e-27)
(0.5 1.73732e-12 4.94963e-28)
(0.5 7.75923e-12 2.25951e-28)
(0.5 3.37654e-11 0)
(0.5 -3.23825e-12 -4.47166e-27)
(0.5 -2.14474e-11 0)
(0.5 -1.35744e-11 -1.23657e-27)
(0.5 4.11837e-13 0)
(0.5 -1.4083e-11 0)
(0.5 -2.22402e-11 0)
(0.5 -7.031e-12 -9.56369e-28)
(0.5 1.0627e-12 -1.53563e-27)
(0.5 -6.77127e-12 0)
(0.5 2.54703e-12 0)
(0.5 -2.95154e-12 0)
(0.5 -2.53907e-12 1.56406e-27)
(0.5 -7.29022e-12 1.84289e-27)
(0.5 1.19742e-11 0)
(0.5 1.10589e-12 0)
(0.5 1.11174e-12 -4.22505e-27)
(0.5 -2.63967e-12 1.75459e-27)
(0.5 -2.28075e-11 -3.0188e-27)
(0.5 1.73931e-11 -3.47414e-27)
(0.5 2.03955e-11 6.30031e-27)
(0.5 -1.02146e-11 1.73855e-27)
(0.5 1.10499e-11 -8.18724e-28)
(0.5 -6.6894e-12 3.38978e-28)
(0.5 6.1189e-12 1.68547e-27)
(0.5 -3.58862e-11 8.46621e-29)
(0.5 6.93777e-13 1.05679e-27)
(0.5 4.72186e-12 -2.21495e-27)
(0.5 3.28266e-11 0)
(0.5 1.17712e-11 -6.64839e-28)
(0.5 4.79796e-12 -4.27725e-27)
(0.5 3.66958e-12 0)
(0.5 1.86662e-12 -1.16524e-27)
(0.5 -2.50646e-12 -4.3455e-27)
(0.5 -9.3236e-12 7.61658e-27)
(0.5 5.0101e-12 1.06902e-27)
(0.5 1.91331e-11 -1.84184e-27)
(0.5 3.02907e-12 -9.92538e-28)
(0.5 -6.02551e-12 9.03318e-28)
(0.5 -1.13288e-11 7.90672e-28)
(0.5 -2.95662e-12 0)
(0.5 -1.25999e-11 0)
(0.5 -1.91545e-11 1.83108e-27)
(0.5 7.55873e-12 0)
(0.5 8.24466e-12 1.61072e-27)
(0.5 -1.71901e-11 0)
(0.5 9.70354e-12 2.31104e-27)
(0.5 1.36446e-12 -9.12686e-28)
(0.5 -2.87097e-11 -2.07603e-27)
(0.5 9.50609e-12 3.92157e-27)
(0.5 -6.81851e-13 0)
(0.5 -2.79861e-11 -1.44085e-27)
(0.5 -1.44783e-12 -9.87252e-28)
(0.5 4.84022e-12 0)
(0.5 7.20713e-12 0)
(0.5 7.0405e-12 1.05558e-27)
(0.5 -1.82949e-11 0)
(0.5 3.05637e-12 0)
(0.5 1.55099e-12 3.53362e-27)
(0.5 5.2508e-12 2.02299e-27)
(0.5 5.4119e-12 1.55504e-27)
(0.5 -8.61605e-13 7.87654e-28)
(0.5 -4.31798e-11 7.52925e-28)
(0.5 5.69232e-12 5.36177e-27)
(0.5 1.86606e-11 0)
(0.5 5.5344e-12 -4.78557e-27)
(0.5 7.33954e-12 -1.02702e-27)
(0.5 4.37505e-12 2.49462e-27)
(0.5 -4.5504e-14 2.017e-29)
(0.5 -7.14709e-12 -1.45998e-27)
(0.5 4.61074e-13 2.54282e-27)
(0.5 2.79193e-12 -2.66704e-27)
(0.5 -6.26215e-11 -5.07229e-28)
(0.5 -1.97737e-11 -2.55703e-27)
(0.5 -1.71075e-11 -1.16964e-29)
(0.5 -6.80447e-12 0)
(0.5 3.60571e-12 1.74562e-27)
(0.5 5.36906e-12 0)
(0.5 2.9714e-13 3.60784e-27)
(0.5 -7.24272e-13 1.48524e-27)
(0.5 -5.17314e-12 0)
(0.5 -3.33845e-12 1.75003e-27)
(0.5 -4.18151e-13 -9.93361e-28)
(0.5 -2.31976e-13 4.00728e-27)
(0.5 -2.38052e-11 0)
(0.5 -1.555e-11 -4.47412e-28)
(0.5 -8.15203e-12 0)
(0.5 -1.87184e-12 0)
(0.5 -9.61546e-12 1.17309e-27)
(0.5 -3.80037e-12 5.43307e-27)
(0.5 -5.24955e-13 -3.70486e-27)
(0.5 -8.27964e-13 -2.86571e-28)
(0.5 1.98931e-12 8.91104e-28)
(0.5 -4.01847e-14 0)
(0.5 6.40598e-12 -6.71853e-27)
(0.5 2.77829e-11 -3.01676e-27)
(0.5 3.7828e-11 0)
(0.5 -4.24628e-11 -7.27039e-28)
(0.5 -7.98986e-12 0)
(0.5 -1.77435e-11 -1.75749e-27)
(0.5 -2.53141e-13 1.29945e-29)
(0.5 8.25994e-12 0)
(0.5 -1.58056e-11 0)
(0.5 8.23003e-12 2.17152e-27)
(0.5 -2.61593e-11 0)
(0.5 -5.42666e-11 4.29302e-28)
(0.5 1.96358e-11 -1.4296e-27)
(0.5 1.46338e-11 0)
(0.5 7.4361e-12 -1.21183e-27)
(0.5 -4.83336e-12 -2.68907e-27)
(0.5 -5.19827e-12 -3.02413e-27)
(0.5 -2.70388e-11 0)
(0.5 4.25238e-11 -2.20388e-30)
(0.5 1.86844e-11 4.35765e-28)
(0.5 3.98441e-12 0)
(0.5 9.84318e-13 1.61211e-27)
(0.5 -1.5873e-11 2.58611e-27)
(0.5 -1.92304e-11 -1.20418e-27)
(0.5 2.78805e-12 4.07455e-27)
(0.5 -8.52133e-13 7.59647e-30)
(0.5 2.53234e-12 -1.02101e-29)
(0.5 7.313e-12 -2.3234e-27)
(0.5 2.62982e-11 3.28607e-27)
(0.5 1.13252e-11 -7.29549e-28)
(0.5 -1.50556e-11 0)
(0.5 -4.54427e-12 0)
(0.5 -1.11596e-11 2.01664e-27)
(0.5 -8.14162e-12 0)
(0.5 -4.10489e-12 1.79264e-28)
(0.5 1.48853e-11 -1.30423e-27)
(0.5 -4.12665e-12 -3.56876e-27)
(0.5 -3.80011e-11 0)
(0.5 -1.20312e-11 1.25817e-27)
(0.5 -2.62683e-12 0)
(0.5 4.69527e-12 0)
(0.5 9.40156e-12 1.54737e-27)
(0.5 -1.91652e-11 1.33119e-27)
(0.5 8.22073e-12 0)
(0.5 6.22656e-13 -5.50305e-27)
(0.5 6.6887e-13 9.24893e-28)
(0.5 1.64265e-11 1.36207e-27)
(0.5 -3.32691e-12 -2.62872e-27)
(0.5 -4.23714e-14 3.93939e-27)
(0.5 3.99653e-12 -2.26977e-27)
(0.5 -8.27804e-13 -1.61464e-27)
(0.5 5.43898e-12 1.1429e-27)
(0.5 8.49162e-12 -6.65428e-31)
(0.5 -7.45424e-13 1.09823e-27)
(0.5 -1.17367e-12 0)
(0.5 8.8096e-12 -4.49027e-27)
(0.5 -1.4747e-11 -1.34904e-27)
(0.5 -1.3427e-11 -2.48851e-27)
(0.5 -7.65602e-12 -8.54979e-28)
(0.5 -5.11663e-12 -2.98113e-27)
(0.5 7.42945e-12 -8.40727e-28)
(0.5 -9.64036e-12 3.77727e-27)
(0.5 -4.98379e-12 -6.15178e-27)
(0.5 -3.09937e-11 -2.21157e-28)
(0.5 3.09062e-12 0)
(0.5 1.08677e-11 1.57466e-29)
(0.5 8.60545e-12 -6.5355e-28)
(0.5 2.11527e-11 8.52727e-28)
(0.5 -4.13556e-11 0)
(0.5 4.82334e-12 -2.64163e-27)
(0.5 1.45754e-11 9.7875e-28)
(0.5 -1.07209e-11 0)
(0.5 -1.76831e-11 0)
(0.5 -4.89283e-12 3.74324e-27)
(0.5 -4.49706e-13 -4.56661e-27)
(0.5 2.82028e-12 0)
(0.5 -3.85458e-12 0)
(0.5 -9.25441e-12 -3.04161e-27)
(0.5 5.77202e-12 4.53836e-27)
(0.5 -7.62242e-12 3.1115e-27)
(0.5 -9.12548e-12 1.4658e-28)
(0.5 1.77028e-11 0)
(0.5 8.193e-12 0)
(0.5 3.74958e-12 -4.73063e-28)
(0.5 -5.95841e-12 -9.94194e-28)
(0.5 -1.44395e-11 -8.25064e-28)
(0.5 2.52203e-12 4.61113e-27)
(0.5 -1.48177e-12 -1.93178e-27)
(0.5 1.32222e-11 0)
(0.5 3.09962e-12 -2.14419e-27)
(0.5 7.87349e-13 7.40224e-27)
(0.5 2.51491e-12 -2.06715e-27)
(0.5 1.20054e-11 2.01749e-27)
(0.5 6.04617e-12 -2.01047e-27)
(0.5 -4.96441e-12 0)
(0.5 6.17936e-12 4.98009e-28)
(0.5 -1.00533e-12 0)
(0.5 -2.08888e-11 1.0694e-29)
(0.5 -3.11441e-14 -3.87267e-27)
(0.5 6.6563e-13 0)
(0.5 1.27006e-11 1.52828e-29)
(0.5 -2.44846e-12 -1.03591e-27)
(0.5 -2.39523e-11 5.42735e-28)
(0.5 -3.61542e-12 2.01038e-27)
(0.5 6.60535e-14 -1.67882e-27)
(0.5 -3.22893e-12 5.47366e-27)
(0.5 9.37078e-12 -1.87605e-27)
(0.5 -1.58439e-11 -3.17761e-27)
(0.5 -3.71687e-12 6.16968e-27)
(0.5 -7.01181e-13 2.27512e-28)
(0.5 1.79355e-12 -1.57789e-27)
(0.5 -3.20169e-12 -8.86906e-28)
(0.5 -1.21155e-11 1.78507e-27)
(0.5 -7.73597e-12 -4.36062e-27)
(0.5 -1.61107e-12 1.34033e-27)
(0.5 3.82878e-11 6.44652e-28)
(0.5 2.62956e-12 1.89486e-27)
(0.5 4.52067e-12 6.18618e-28)
(0.5 -4.73211e-12 3.74402e-28)
(0.5 -1.52064e-11 9.57421e-29)
(0.5 -2.40989e-12 6.19308e-28)
(0.5 1.91408e-11 0)
(0.5 -1.34713e-12 -5.78282e-27)
(0.5 9.2039e-13 -2.05892e-27)
(0.5 3.18959e-12 0)
(0.5 1.37043e-11 1.91795e-27)
(0.5 -1.0632e-11 -1.39407e-27)
(0.5 -3.67052e-11 -8.90515e-28)
(0.5 -1.62101e-12 0)
(0.5 4.85986e-12 3.23827e-27)
(0.5 3.56148e-12 2.59277e-28)
(0.5 1.0612e-12 4.01221e-27)
(0.5 -9.77934e-13 4.31458e-27)
(0.5 -5.26947e-12 -3.86095e-27)
(0.5 -3.03314e-12 0)
(0.5 6.34063e-12 0)
(0.5 -3.18294e-11 2.44504e-27)
(0.5 -7.00699e-13 -4.06856e-27)
(0.5 6.43004e-13 5.74828e-27)
(0.5 -4.00568e-12 0)
(0.5 1.69321e-12 0)
(0.5 3.57675e-12 4.40069e-27)
(0.5 -1.46489e-11 -1.25586e-27)
(0.5 1.3149e-12 0)
(0.5 -7.02014e-12 -2.51884e-27)
(0.5 -5.75676e-12 4.66813e-28)
(0.5 2.81947e-11 -3.36322e-28)
(0.5 -1.65368e-11 -2.37586e-27)
(0.5 5.48903e-12 4.16966e-27)
(0.5 3.45522e-11 -7.95951e-28)
(0.5 2.73393e-12 2.30379e-27)
(0.5 -7.25425e-12 -1.12122e-27)
(0.5 6.57185e-12 9.82811e-28)
(0.5 -4.56955e-12 -6.22151e-28)
(0.5 1.44372e-11 8.79177e-28)
(0.5 7.96522e-12 -1.0282e-27)
(0.5 4.62556e-13 -1.57719e-27)
(0.5 4.94316e-12 0)
(0.5 5.91989e-12 0)
(0.5 -1.60571e-12 3.3352e-27)
(0.5 -7.43815e-13 1.12531e-27)
(0.5 4.86024e-12 -1.55278e-27)
(0.5 -1.94456e-11 -4.57185e-27)
(0.5 -6.49551e-12 -1.92277e-27)
(0.5 -6.77171e-12 -1.01381e-27)
(0.5 -4.47067e-11 0)
(0.5 -1.30257e-11 1.31985e-27)
(0.5 8.332e-13 -3.37036e-27)
(0.5 5.13485e-12 -1.79245e-27)
(0.5 -3.34784e-12 -4.42159e-27)
(0.5 -9.73575e-12 2.69209e-30)
(0.5 -5.26105e-12 0)
(0.5 2.48436e-12 1.99451e-27)
(0.5 -2.65961e-12 1.19109e-27)
(0.5 6.53656e-12 -4.19578e-27)
(0.5 1.08907e-11 0)
(0.5 -3.81112e-13 4.78221e-27)
(0.5 1.46082e-12 -4.05605e-27)
(0.5 5.06874e-12 0)
(0.5 6.0218e-12 -7.85754e-27)
(0.5 1.53037e-11 -1.11477e-27)
(0.5 1.70006e-11 1.76986e-27)
(0.5 -1.77291e-12 -6.88584e-28)
(0.5 6.74135e-12 -3.94882e-27)
(0.5 -1.25333e-12 1.9455e-27)
(0.5 2.72412e-12 -3.17961e-27)
(0.5 8.99038e-13 4.12614e-27)
(0.5 1.69697e-11 -1.07799e-29)
(0.5 5.49412e-12 0)
(0.5 -3.0001e-11 0)
(0.5 6.74844e-12 1.3237e-27)
(0.5 1.15138e-11 0)
(0.5 1.17388e-11 0)
(0.5 -6.02736e-12 0)
(0.5 -1.28748e-12 2.22107e-27)
(0.5 -1.11866e-11 0)
(0.5 -6.68566e-12 -2.18205e-28)
(0.5 1.47974e-11 3.33854e-27)
(0.5 1.20446e-12 1.81093e-27)
(0.5 4.2087e-12 0)
(0.5 -1.25258e-11 -1.09389e-27)
(0.5 -3.71042e-11 -3.00423e-28)
(0.5 -4.8508e-12 0)
(0.5 -1.41608e-12 5.63351e-28)
(0.5 2.55749e-11 0)
(0.5 -2.00116e-11 -1.8448e-27)
(0.5 1.78515e-12 0)
(0.5 -4.99966e-13 -3.39947e-27)
(0.5 -3.2473e-12 0)
(0.5 -8.88007e-12 3.76724e-27)
(0.5 3.74408e-12 3.61697e-27)
(0.5 7.22748e-12 -3.40143e-27)
(0.5 6.80623e-12 6.19552e-27)
(0.5 -2.15324e-11 -6.36635e-28)
(0.5 -1.59026e-13 -3.72397e-27)
(0.5 5.00407e-12 5.34497e-27)
(0.5 1.41489e-12 1.78943e-27)
(0.5 -6.10145e-12 3.02057e-27)
(0.5 -9.34943e-12 3.14898e-27)
(0.5 2.45451e-12 1.05114e-27)
(0.5 -7.69238e-13 -3.91166e-27)
(0.5 -9.57729e-13 -5.14893e-28)
(0.5 7.8546e-12 0)
(0.5 -1.63663e-11 6.59165e-28)
(0.5 1.67088e-12 -1.1005e-27)
(0.5 3.63996e-11 1.77871e-27)
(0.5 -4.62045e-12 0)
(0.5 5.10784e-12 -2.76187e-27)
(0.5 4.43367e-12 -4.23885e-27)
(0.5 6.94815e-13 9.09918e-31)
(0.5 8.59444e-12 0)
(0.5 4.04025e-12 2.06635e-27)
(0.5 6.63668e-12 -2.04535e-27)
(0.5 -1.11334e-11 5.51078e-28)
(0.5 6.62836e-12 6.98632e-28)
(0.5 -5.55573e-12 4.76275e-27)
(0.5 2.69883e-12 -1.56104e-27)
(0.5 6.74475e-12 3.06716e-27)
(0.5 4.27433e-13 8.60241e-28)
(0.5 5.43467e-12 7.98292e-29)
(0.5 2.56438e-11 -4.5813e-28)
(0.5 -2.39018e-11 3.58927e-27)
(0.5 2.14919e-11 2.13189e-27)
(0.5 8.4745e-12 4.0421e-27)
(0.5 3.8047e-12 1.92038e-27)
(0.5 8.80478e-12 1.18538e-27)
(0.5 -1.77182e-11 4.82416e-29)
(0.5 -5.90208e-13 2.54885e-27)
(0.5 -2.09778e-12 1.04404e-27)
(0.5 2.45044e-11 -8.61065e-29)
(0.5 6.57532e-12 -2.86574e-29)
(0.5 1.29466e-11 0)
(0.5 5.56288e-13 2.79204e-28)
(0.5 -7.93031e-13 -4.26014e-27)
(0.5 1.47977e-11 1.69928e-27)
(0.5 -6.04583e-14 1.49511e-27)
(0.5 -3.71085e-12 0)
(0.5 4.08475e-12 0)
(0.5 -4.09728e-12 -1.01686e-27)
(0.5 -2.97379e-11 3.56809e-27)
(0.5 4.15936e-12 -1.12027e-27)
(0.5 -2.55779e-11 0)
(0.5 -2.31301e-11 -1.04517e-27)
(0.5 2.19373e-13 8.5922e-28)
(0.5 6.26875e-12 -8.60749e-28)
(0.5 5.44932e-12 -2.87769e-27)
(0.5 -1.22715e-11 2.50626e-27)
(0.5 -6.50532e-12 -1.79539e-27)
(0.5 3.6228e-13 4.22333e-27)
(0.5 9.62533e-13 0)
(0.5 -7.92239e-12 -2.97378e-27)
(0.5 2.4588e-11 -3.55123e-27)
(0.5 1.89517e-11 0)
(0.5 2.01284e-11 2.58989e-28)
(0.5 9.60178e-12 -7.85017e-28)
(0.5 7.32326e-13 0)
(0.5 -1.40388e-11 7.09185e-28)
(0.5 5.35868e-13 0)
(0.5 3.77804e-11 -6.8617e-29)
(0.5 -6.63959e-12 0)
(0.5 -1.28927e-11 0)
(0.5 9.41761e-12 0)
(0.5 7.26467e-12 -7.96038e-27)
(0.5 1.18384e-11 5.23672e-28)
(0.5 1.30298e-11 0)
(0.5 1.60375e-12 0)
(0.5 2.36122e-11 1.75959e-27)
(0.5 -6.38496e-12 2.02293e-27)
(0.5 -3.95339e-13 1.57511e-27)
(0.5 4.60951e-12 0)
(0.5 6.71625e-12 -1.91622e-27)
(0.5 8.56453e-12 -2.41384e-28)
(0.5 1.2926e-11 3.38342e-27)
(0.5 9.3741e-12 4.46157e-28)
(0.5 -9.55607e-13 4.07838e-27)
(0.5 2.67733e-12 2.17443e-27)
(0.5 -2.80102e-11 0)
(0.5 1.07052e-12 1.79429e-27)
(0.5 2.14043e-12 6.79889e-28)
(0.5 -2.75983e-11 1.76749e-27)
(0.5 1.45034e-11 0)
(0.5 -1.63913e-11 -8.9989e-28)
(0.5 1.3108e-11 -2.80439e-27)
(0.5 -8.51648e-12 0)
(0.5 4.88728e-12 -1.92536e-27)
(0.5 -1.18925e-11 4.84517e-27)
(0.5 5.2509e-13 0)
(0.5 -3.16187e-11 0)
(0.5 -2.34327e-14 0)
(0.5 1.7748e-11 0)
(0.5 3.66181e-12 2.12979e-27)
(0.5 -3.92008e-13 -3.85634e-27)
(0.5 1.33998e-11 3.9472e-27)
(0.5 -1.14144e-11 1.24028e-27)
(0.5 6.58664e-13 1.08698e-27)
(0.5 -3.88945e-11 5.80517e-28)
(0.5 -1.03698e-11 3.38582e-27)
(0.5 2.11318e-12 0)
(0.5 8.63063e-12 0)
(0.5 5.12832e-12 0)
(0.5 -4.49123e-12 5.31453e-27)
(0.5 3.82798e-14 -1.99355e-27)
(0.5 -8.60783e-13 4.70164e-28)
(0.5 -4.24844e-11 3.92935e-29)
(0.5 1.58571e-12 3.27503e-27)
(0.5 -4.3541e-12 0)
(0.5 -9.12442e-13 4.66739e-27)
(0.5 8.73326e-12 -1.45456e-27)
(0.5 -1.13708e-11 -7.37705e-28)
(0.5 1.11607e-12 4.79908e-30)
(0.5 -5.92242e-13 0)
(0.5 -5.09424e-12 -3.20498e-27)
(0.5 -7.57109e-11 0)
(0.5 -1.07483e-12 -4.21087e-27)
(0.5 -1.62154e-12 0)
(0.5 -1.13395e-12 -8.11459e-28)
(0.5 2.81424e-11 1.38004e-27)
(0.5 9.25275e-12 -1.12755e-27)
(0.5 -3.11461e-11 -2.78065e-28)
(0.5 1.01903e-11 1.11594e-27)
(0.5 6.24239e-12 -4.15019e-27)
(0.5 5.14977e-14 0)
(0.5 4.09671e-12 -3.90766e-27)
(0.5 -7.62692e-12 0)
(0.5 1.98432e-12 0)
(0.5 -2.25707e-12 -3.54593e-28)
(0.5 5.10179e-11 -1.04805e-27)
(0.5 -7.67244e-12 -4.8855e-27)
(0.5 -6.95134e-12 3.3152e-27)
(0.5 -1.19872e-11 0)
(0.5 -7.90519e-11 3.8017e-28)
(0.5 -1.91729e-12 0)
(0.5 -8.93955e-12 1.60533e-27)
(0.5 1.18379e-12 -2.02291e-27)
(0.5 1.30727e-11 1.65122e-27)
(0.5 3.80318e-12 0)
(0.5 2.16711e-11 1.23836e-27)
(0.5 -1.39149e-11 -2.5825e-27)
(0.5 -2.87569e-11 -8.30532e-29)
(0.5 7.07209e-12 0)
(0.5 -6.07861e-12 -2.9486e-27)
(0.5 1.57026e-12 0)
(0.5 1.6147e-14 2.16695e-27)
(0.5 2.50664e-12 1.06794e-27)
(0.5 -1.88501e-12 0)
(0.5 1.53782e-11 -1.14588e-27)
(0.5 4.68815e-12 -4.73057e-28)
(0.5 -4.23829e-12 0)
(0.5 6.05472e-12 0)
(0.5 -1.20003e-11 -4.15231e-27)
(0.5 1.53626e-11 1.38945e-27)
(0.5 -2.33762e-12 1.36588e-27)
(0.5 -9.49672e-12 0)
(0.5 8.00592e-13 0)
(0.5 -2.73787e-11 3.53503e-27)
(0.5 7.63684e-12 3.31755e-27)
(0.5 2.37646e-12 -1.85352e-29)
(0.5 -6.15517e-12 2.3097e-27)
(0.5 -4.49881e-13 0)
(0.5 9.92973e-12 -1.93705e-27)
(0.5 -6.92499e-11 -1.20321e-27)
(0.5 1.64848e-12 -3.85182e-27)
(0.5 5.72385e-13 0)
(0.5 8.51318e-12 -9.78713e-28)
(0.5 2.94521e-11 6.32572e-28)
(0.5 -1.29067e-11 -1.35496e-27)
(0.5 4.05609e-12 0)
(0.5 3.61767e-12 1.82004e-27)
(0.5 -1.18941e-11 0)
(0.5 4.19137e-12 0)
(0.5 1.20305e-11 -1.59222e-27)
(0.5 4.86931e-12 1.54747e-27)
(0.5 -6.70929e-12 -3.13696e-27)
(0.5 -5.87511e-12 2.11915e-27)
(0.5 -6.9533e-12 1.83899e-27)
(0.5 -2.70485e-11 -1.87962e-28)
(0.5 1.97884e-12 -1.84583e-27)
(0.5 8.9649e-12 1.93252e-27)
(0.5 -3.74273e-11 -2.02594e-27)
(0.5 6.26788e-12 0)
(0.5 9.0149e-12 0)
(0.5 2.64296e-13 0)
(0.5 -1.57109e-12 -2.02353e-27)
(0.5 3.1478e-12 -2.30447e-27)
(0.5 -6.12955e-12 -6.90645e-28)
(0.5 -1.23362e-12 -4.11474e-27)
(0.5 -4.0778e-12 -7.51251e-28)
(0.5 1.3316e-11 1.56662e-27)
(0.5 -3.40657e-13 -3.74128e-27)
(0.5 2.22922e-11 2.41187e-27)
(0.5 1.04711e-11 -3.96931e-27)
(0.5 6.52385e-12 -1.04349e-27)
(0.5 8.25024e-12 1.99296e-27)
(0.5 4.17994e-12 0)
(0.5 4.13935e-12 -3.04687e-27)
(0.5 8.93151e-12 -1.09405e-27)
(0.5 -4.06306e-13 -6.79945e-29)
(0.5 2.45083e-13 1.06518e-27)
(0.5 -8.35204e-12 9.64406e-28)
(0.5 -2.06719e-12 -5.00948e-27)
(0.5 3.62618e-12 5.17916e-27)
(0.5 8.18644e-12 -2.23079e-27)
(0.5 1.18276e-11 0)
(0.5 5.7074e-12 -4.94512e-27)
(0.5 6.81895e-12 -1.72428e-27)
(0.5 -6.76531e-13 3.91661e-27)
(0.5 -6.47817e-12 3.86643e-27)
(0.5 9.8856e-12 -1.60327e-27)
(0.5 -4.07792e-11 5.48439e-28)
(0.5 -3.78207e-11 1.96617e-27)
(0.5 -3.34644e-13 0)
(0.5 -9.92977e-12 -4.37575e-28)
(0.5 3.28103e-11 2.16003e-27)
(0.5 1.3035e-11 -2.44575e-27)
(0.5 8.80743e-12 -1.76945e-27)
(0.5 9.55691e-13 3.83728e-27)
(0.5 -2.21584e-13 -4.20275e-27)
(0.5 -8.13061e-12 0)
(0.5 -2.07601e-12 1.91223e-27)
(0.5 -4.87613e-12 -2.30924e-27)
(0.5 -2.37615e-11 1.39662e-27)
(0.5 -6.17408e-12 3.54541e-27)
(0.5 -3.84197e-11 0)
(0.5 2.08169e-12 5.90658e-27)
(0.5 -8.3715e-12 -1.0145e-29)
(0.5 -1.30307e-11 -1.98381e-27)
(0.5 1.22562e-11 -9.67518e-28)
(0.5 -1.82699e-12 0)
(0.5 3.67545e-12 3.83976e-27)
(0.5 1.05352e-11 -4.15356e-27)
(0.5 1.41475e-11 -2.6693e-27)
(0.5 1.56192e-11 -2.63614e-27)
(0.5 5.15389e-12 0)
(0.5 -6.21265e-12 3.51795e-27)
(0.5 9.38353e-12 -3.47423e-27)
(0.5 6.01548e-12 -5.35561e-27)
(0.5 -2.22309e-11 -2.25326e-27)
(0.5 -2.33764e-12 -1.53079e-27)
(0.5 1.6057e-12 0)
(0.5 2.65209e-12 2.86143e-27)
(0.5 -2.48971e-12 4.93171e-27)
(0.5 -6.30088e-13 4.26414e-27)
(0.5 4.04508e-13 0)
(0.5 4.28604e-12 0)
(0.5 -2.89968e-13 -3.07485e-27)
(0.5 -3.48023e-11 4.87374e-28)
(0.5 -3.66407e-12 9.97752e-30)
(0.5 -1.29125e-11 -5.1512e-28)
(0.5 -7.14604e-12 -4.41789e-27)
(0.5 9.81722e-12 -2.11526e-27)
(0.5 3.11924e-12 0)
(0.5 3.09999e-12 -4.5235e-27)
(0.5 -2.26971e-14 -1.0192e-27)
(0.5 5.85136e-12 1.839e-27)
(0.5 9.67287e-12 -1.84207e-27)
(0.5 1.64518e-11 1.38684e-27)
(0.5 -5.00695e-11 2.46813e-28)
(0.5 -3.56737e-11 -2.45079e-27)
(0.5 4.30687e-12 1.68329e-27)
(0.5 8.56643e-12 7.6086e-28)
(0.5 -8.66161e-12 9.10075e-28)
(0.5 -2.21574e-12 -4.14541e-27)
(0.5 -3.50943e-11 0)
(0.5 -7.057e-12 0)
(0.5 3.56315e-12 -2.18311e-27)
(0.5 -6.00211e-11 1.79395e-27)
(0.5 -4.16153e-11 -2.73105e-27)
(0.5 3.87903e-12 -4.08645e-27)
(0.5 5.62033e-12 -4.31385e-27)
(0.5 1.86419e-11 0)
(0.5 -8.09012e-12 -2.39987e-28)
(0.5 4.94156e-12 1.11449e-27)
(0.5 3.51332e-12 0)
(0.5 -7.48811e-12 0)
(0.5 -1.57047e-11 4.14952e-28)
(0.5 -5.97631e-12 0)
(0.5 -3.2302e-11 2.30555e-27)
(0.5 -2.00613e-13 -1.1745e-27)
(0.5 2.396e-12 -4.79393e-28)
(0.5 1.33435e-12 1.6829e-27)
(0.5 1.27202e-12 -1.22815e-29)
(0.5 -7.27681e-13 2.11266e-27)
(0.5 5.05234e-11 0)
(0.5 1.36304e-11 -3.53875e-27)
(0.5 -8.3527e-12 3.81739e-27)
(0.5 4.58087e-13 -4.2768e-30)
(0.5 5.52708e-12 -3.35803e-28)
(0.5 -5.80122e-13 0)
(0.5 1.41387e-12 -1.09893e-27)
(0.5 -2.36047e-11 -1.32678e-27)
(0.5 8.52082e-12 3.93634e-28)
(0.5 4.49103e-12 -2.21987e-27)
(0.5 3.59565e-12 6.2828e-27)
(0.5 -2.7014e-12 1.21442e-27)
(0.5 6.98966e-12 -1.01776e-27)
(0.5 1.11817e-12 0)
(0.5 6.89029e-12 -1.64844e-27)
(0.5 3.58829e-12 2.23243e-27)
(0.5 -2.7953e-13 1.41886e-27)
(0.5 -1.47769e-11 -9.29445e-29)
(0.5 1.20706e-11 -6.00033e-28)
(0.5 1.21153e-11 -6.17873e-27)
(0.5 4.1006e-13 0)
(0.5 -2.63552e-11 -9.18304e-28)
(0.5 -2.34331e-12 1.80941e-27)
(0.5 2.56913e-12 3.77816e-27)
(0.5 -7.35594e-12 3.60964e-27)
(0.5 4.80846e-12 3.90666e-27)
(0.5 6.95669e-12 -1.95187e-27)
(0.5 -1.28784e-12 0)
(0.5 4.59367e-13 -1.65399e-27)
(0.5 7.37683e-13 0)
(0.5 -9.76458e-12 0)
(0.5 -5.05884e-13 0)
(0.5 -6.58749e-13 -3.26773e-27)
(0.5 -5.43543e-12 2.32841e-28)
(0.5 -2.45486e-11 6.91136e-28)
(0.5 3.36627e-12 -8.80151e-28)
(0.5 -5.05796e-12 -1.07105e-27)
(0.5 4.14832e-11 1.72809e-27)
(0.5 -4.25897e-13 4.16599e-27)
(0.5 -1.03131e-11 2.41003e-27)
(0.5 -1.57903e-12 2.22132e-27)
(0.5 -8.69497e-14 0)
(0.5 1.51998e-11 2.17019e-27)
(0.5 3.13892e-12 4.56335e-27)
(0.5 9.99369e-14 0)
(0.5 1.39576e-12 0)
(0.5 -3.76202e-12 0)
(0.5 -1.89565e-11 5.10348e-28)
(0.5 -1.29789e-12 -4.26437e-27)
(0.5 -3.57204e-12 3.96031e-27)
(0.5 -1.54473e-12 -5.527e-27)
(0.5 -6.9163e-12 0)
(0.5 -1.15818e-12 -2.39403e-27)
(0.5 2.1478e-12 -4.3112e-27)
(0.5 3.27082e-12 3.55678e-27)
(0.5 1.11524e-11 0)
(0.5 -1.69447e-12 0)
(0.5 3.37415e-13 1.82494e-27)
(0.5 -2.477e-11 1.13182e-27)
(0.5 7.16623e-13 -5.09521e-28)
(0.5 3.25666e-12 0)
(0.5 -3.9968e-12 6.37974e-27)
(0.5 4.10512e-12 4.28171e-27)
(0.5 -2.75532e-11 -6.07531e-28)
(0.5 -1.24331e-12 0)
(0.5 4.89215e-12 0)
(0.5 2.41016e-12 -1.95728e-27)
(0.5 -7.60161e-12 -7.05602e-28)
(0.5 -8.91586e-12 0)
(0.5 3.55003e-12 -2.16946e-27)
(0.5 -3.16286e-12 9.69435e-28)
(0.5 1.6684e-12 0)
(0.5 1.77075e-12 2.08129e-27)
(0.5 1.9506e-11 -1.96623e-27)
(0.5 -1.64244e-11 2.38735e-27)
(0.5 -2.62072e-12 0)
(0.5 -3.61318e-12 4.60457e-27)
(0.5 -2.1103e-12 0)
(0.5 7.35104e-12 -1.22991e-28)
(0.5 3.6531e-12 0)
(0.5 -2.95671e-11 -1.6367e-28)
(0.5 4.24544e-13 -3.95851e-27)
(0.5 -1.01785e-11 3.45425e-27)
(0.5 5.81538e-12 0)
(0.5 4.82291e-12 -8.02777e-28)
(0.5 -5.42706e-11 0)
(0.5 -2.33595e-11 -1.59185e-27)
(0.5 1.20443e-11 2.14051e-27)
(0.5 4.27597e-12 -4.51732e-27)
(0.5 7.54877e-12 -3.72586e-27)
(0.5 1.21891e-11 -1.82675e-27)
(0.5 -8.27638e-12 1.70665e-27)
(0.5 -6.19073e-12 -3.03856e-27)
(0.5 1.54488e-11 -8.85215e-28)
(0.5 -3.7646e-12 -2.54963e-27)
(0.5 -3.90542e-13 4.31338e-27)
(0.5 -2.15901e-14 0)
(0.5 4.90848e-12 -3.83619e-27)
(0.5 1.08294e-11 -4.8194e-27)
(0.5 1.5079e-12 1.62447e-27)
(0.5 -9.36626e-13 -2.09412e-27)
(0.5 1.42156e-12 -1.60325e-27)
(0.5 1.49387e-11 0)
(0.5 1.75402e-12 0)
(0.5 1.32435e-11 -2.98789e-27)
(0.5 1.30783e-11 1.7187e-27)
(0.5 7.71055e-12 -1.80042e-27)
(0.5 -3.04559e-12 9.11048e-28)
(0.5 -1.81741e-12 3.70415e-27)
(0.5 -1.08547e-12 -3.71117e-27)
(0.5 1.77088e-11 0)
(0.5 3.00682e-12 0)
(0.5 4.20818e-13 1.18018e-28)
(0.5 7.18683e-12 3.05372e-29)
(0.5 3.16402e-12 1.38688e-28)
(0.5 -2.00772e-11 0)
(0.5 -4.25588e-12 3.30908e-30)
(0.5 -3.74773e-13 0)
(0.5 -3.44827e-12 7.84358e-28)
(0.5 1.95548e-12 -4.4096e-27)
(0.5 -2.07637e-13 1.62382e-27)
(0.5 8.7514e-12 -2.28537e-27)
(0.5 -2.04986e-13 0)
(0.5 2.6173e-12 5.31681e-28)
(0.5 -2.05014e-12 1.12287e-27)
(0.5 1.03397e-11 -3.29889e-27)
(0.5 -1.87338e-12 9.44965e-28)
(0.5 -4.78738e-13 -1.13796e-27)
(0.5 2.05128e-12 -3.57234e-27)
(0.5 1.6965e-11 3.46111e-28)
(0.5 6.39997e-12 -8.3557e-28)
(0.5 3.67173e-13 9.71947e-28)
(0.5 -2.79794e-12 -8.71894e-28)
(0.5 -3.28215e-13 -1.06793e-27)
(0.5 -5.01453e-13 -3.80846e-27)
(0.5 1.32781e-11 2.07313e-27)
(0.5 1.58658e-12 3.20202e-27)
(0.5 -7.66441e-13 -4.56666e-27)
(0.5 -5.88359e-13 5.89682e-27)
(0.5 -1.42378e-12 -8.08114e-28)
(0.5 -1.67946e-11 -1.36179e-27)
(0.5 6.75873e-12 -3.95879e-27)
(0.5 1.35802e-11 -3.63865e-27)
(0.5 5.96697e-13 -1.54415e-29)
(0.5 -4.60511e-11 0)
(0.5 1.11907e-13 -4.30315e-27)
(0.5 -1.13495e-11 2.11638e-27)
(0.5 -3.397e-12 -8.95276e-28)
(0.5 4.5441e-12 1.34326e-27)
(0.5 -1.43566e-11 -3.73387e-27)
(0.5 -1.89845e-11 -1.1179e-27)
(0.5 2.95169e-12 4.40136e-27)
(0.5 7.32635e-12 0)
(0.5 7.71069e-13 -1.27964e-27)
(0.5 -2.55531e-11 9.76747e-28)
(0.5 -1.8731e-12 0)
(0.5 -8.48683e-12 6.56953e-27)
(0.5 -5.28204e-14 -1.89849e-27)
(0.5 -6.91669e-13 1.07654e-27)
(0.5 -2.06877e-11 -1.30483e-27)
(0.5 1.38983e-12 -1.60985e-27)
(0.5 2.425e-11 0)
(0.5 2.24315e-12 -4.2565e-27)
(0.5 -2.22811e-11 -1.69485e-28)
(0.5 5.10483e-12 4.49089e-27)
(0.5 5.84391e-12 3.33668e-27)
(0.5 1.36889e-12 5.38256e-28)
(0.5 -4.19665e-12 -1.95226e-27)
(0.5 1.48389e-11 -8.68919e-28)
(0.5 4.70574e-12 0)
(0.5 1.53133e-12 0)
(0.5 -1.47418e-12 2.51591e-29)
(0.5 1.73382e-11 2.27346e-27)
(0.5 -3.18631e-11 -1.25185e-27)
(0.5 1.68741e-11 -2.91054e-27)
(0.5 1.4184e-11 0)
(0.5 -1.27208e-11 -6.31682e-29)
(0.5 -5.06668e-12 3.56527e-27)
(0.5 -1.90326e-12 -1.67214e-27)
(0.5 8.33174e-12 0)
(0.5 2.82757e-12 0)
(0.5 9.52603e-12 2.91773e-27)
(0.5 -1.41737e-12 8.71373e-28)
(0.5 -7.05014e-13 -8.82065e-28)
(0.5 -1.296e-12 1.04102e-27)
(0.5 -6.32565e-12 1.06358e-27)
(0.5 -2.73881e-11 0)
(0.5 -6.99843e-12 0)
(0.5 1.21605e-11 -2.64931e-27)
(0.5 2.18899e-13 -8.2339e-27)
(0.5 1.93163e-12 3.53909e-27)
(0.5 -5.50892e-12 2.09687e-27)
(0.5 -4.57467e-12 4.82107e-28)
(0.5 3.83061e-12 -1.96069e-27)
(0.5 2.1794e-11 3.62622e-27)
(0.5 -3.01142e-11 7.29209e-28)
(0.5 -1.77507e-11 -7.46797e-28)
(0.5 -3.99555e-12 -2.43305e-27)
(0.5 -1.59646e-11 0)
(0.5 1.89989e-12 -8.95223e-27)
(0.5 -2.18402e-11 -1.18205e-27)
(0.5 5.55332e-12 3.49344e-27)
(0.5 -1.36615e-12 0)
(0.5 -2.88873e-12 -9.32789e-28)
(0.5 -3.39204e-12 0)
(0.5 -1.86016e-11 -1.97065e-27)
(0.5 2.48028e-11 -1.04298e-27)
(0.5 2.95915e-12 -1.92565e-27)
(0.5 -4.15439e-13 0)
(0.5 8.49433e-15 0)
(0.5 -7.31795e-12 0)
(0.5 -9.2617e-12 -2.36093e-27)
(0.5 9.42362e-12 -4.17903e-27)
(0.5 5.26764e-12 2.50862e-27)
(0.5 -2.88729e-11 2.7469e-27)
(0.5 -3.06648e-11 0)
(0.5 5.56803e-12 -1.16649e-27)
(0.5 2.64124e-12 2.09946e-27)
(0.5 -7.86546e-12 0)
(0.5 3.22569e-12 0)
(0.5 -3.46439e-12 -6.86548e-28)
(0.5 6.63197e-12 -2.17623e-27)
(0.5 3.63955e-11 0)
(0.5 -2.74114e-11 1.58006e-27)
(0.5 -7.52674e-13 2.01085e-27)
(0.5 -2.42087e-11 -9.26349e-29)
(0.5 -6.97925e-12 1.91254e-27)
(0.5 -4.30374e-13 1.87959e-27)
(0.5 1.88086e-12 -1.21143e-27)
(0.5 7.18122e-12 2.54442e-28)
(0.5 6.37906e-12 2.2102e-27)
(0.5 1.20044e-11 1.63038e-27)
(0.5 5.14952e-12 0)
(0.5 1.26922e-11 3.98975e-28)
(0.5 3.00067e-12 0)
(0.5 -1.81298e-13 -2.36988e-27)
(0.5 1.3459e-11 0)
(0.5 3.42242e-12 1.9953e-27)
(0.5 3.5864e-12 7.46011e-28)
(0.5 -4.72717e-12 -4.53444e-27)
(0.5 -1.50445e-12 -4.19309e-27)
(0.5 -1.37239e-11 -6.20657e-28)
(0.5 -3.88659e-12 1.4714e-27)
(0.5 1.16724e-11 0)
(0.5 2.17448e-12 1.10816e-27)
(0.5 4.00386e-12 -6.70443e-29)
(0.5 6.81847e-14 0)
(0.5 2.10125e-12 -5.28873e-27)
(0.5 7.99558e-12 5.63866e-27)
(0.5 -1.42867e-11 6.10704e-29)
(0.5 2.39765e-11 2.14858e-28)
(0.5 -3.17044e-13 -5.11131e-28)
(0.5 9.58124e-12 0)
(0.5 -1.08465e-12 0)
(0.5 -1.88171e-12 -4.11182e-27)
(0.5 -5.77273e-12 -2.66592e-27)
(0.5 3.02113e-13 0)
(0.5 -7.4903e-11 0)
(0.5 2.95113e-12 2.0154e-27)
(0.5 -5.07683e-13 0)
(0.5 6.98203e-12 0)
(0.5 -2.82375e-11 1.74913e-27)
(0.5 8.51831e-12 -3.77663e-27)
(0.5 -6.70813e-13 0)
(0.5 -1.25389e-11 0)
(0.5 1.91769e-11 1.40468e-27)
(0.5 -2.06468e-11 9.25388e-30)
(0.5 -1.47328e-13 4.06149e-27)
(0.5 -1.66868e-11 -5.40439e-28)
(0.5 3.75572e-12 8.61007e-28)
(0.5 -4.54516e-11 9.98117e-28)
(0.5 4.35816e-12 -2.47162e-29)
(0.5 1.57316e-11 1.51866e-27)
(0.5 2.53724e-12 -3.80777e-27)
(0.5 -1.1542e-11 9.53852e-29)
(0.5 -1.58265e-11 6.68361e-28)
(0.5 3.82143e-12 0)
(0.5 -9.39121e-12 1.01713e-27)
(0.5 3.92878e-13 1.00404e-27)
(0.5 -2.56997e-12 -5.15447e-27)
(0.5 -3.87723e-11 3.164e-28)
(0.5 -8.01488e-12 0)
(0.5 8.37354e-12 0)
(0.5 -2.24405e-11 6.12528e-30)
(0.5 -1.06465e-12 7.14573e-29)
(0.5 5.12748e-12 -2.79794e-27)
(0.5 2.52144e-13 -1.38843e-27)
(0.5 -4.45906e-12 -1.87652e-27)
(0.5 -1.78307e-12 -4.96613e-28)
(0.5 4.362e-12 5.71008e-30)
(0.5 -1.66038e-12 0)
(0.5 -3.48691e-12 -9.98359e-28)
(0.5 -1.04371e-11 0)
(0.5 -1.07793e-11 -2.08158e-27)
(0.5 5.91512e-13 -3.98453e-27)
(0.5 -1.68968e-12 -4.23361e-27)
(0.5 1.75223e-11 -1.62647e-27)
(0.5 2.84086e-11 2.93441e-27)
(0.5 -8.52778e-12 3.73225e-27)
(0.5 1.28483e-11 -9.22252e-28)
(0.5 8.32353e-12 1.81991e-27)
(0.5 -6.64871e-12 3.23685e-27)
(0.5 -4.40543e-12 3.08654e-27)
(0.5 -3.88716e-12 0)
(0.5 -3.45818e-11 2.76421e-27)
(0.5 -1.79134e-12 0)
(0.5 -1.3209e-11 0)
(0.5 -2.29703e-11 0)
(0.5 1.54507e-11 1.24334e-27)
(0.5 1.36903e-12 6.96661e-28)
(0.5 4.43395e-12 1.24604e-28)
(0.5 -1.56379e-11 0)
(0.5 6.38071e-12 -3.29605e-27)
(0.5 2.9585e-12 3.69417e-27)
(0.5 8.63786e-12 0)
(0.5 -1.21041e-11 9.1583e-28)
(0.5 -2.05484e-11 1.21351e-27)
(0.5 -8.07699e-12 2.75297e-27)
(0.5 2.32701e-12 2.21989e-27)
(0.5 -1.47712e-11 -1.73752e-27)
(0.5 -1.3703e-12 -3.23544e-27)
(0.5 1.16105e-12 -1.18963e-27)
(0.5 -1.49297e-11 2.32454e-27)
(0.5 5.29816e-12 -1.73732e-27)
(0.5 3.73688e-12 0)
(0.5 -1.2605e-11 1.66431e-27)
(0.5 1.59953e-12 -3.23109e-27)
(0.5 1.12426e-12 -5.72751e-27)
(0.5 3.03879e-12 0)
(0.5 2.35252e-11 0)
(0.5 -3.49111e-12 -2.08838e-27)
(0.5 5.31735e-13 0)
(0.5 -9.9218e-14 -3.23897e-27)
(0.5 -2.21198e-11 3.13975e-28)
(0.5 -5.19635e-11 0)
(0.5 -5.89227e-12 -2.56096e-27)
(0.5 2.20172e-13 2.16447e-27)
(0.5 -5.22665e-13 0)
(0.5 -6.29205e-12 -4.00551e-27)
(0.5 2.15161e-13 -9.89465e-28)
(0.5 5.76524e-12 -1.3935e-27)
(0.5 2.70716e-12 2.0925e-27)
(0.5 2.56918e-11 -3.54805e-27)
(0.5 -1.87683e-12 0)
(0.5 7.28533e-13 -3.39121e-27)
(0.5 1.41765e-12 -4.18301e-27)
(0.5 2.60682e-12 1.58454e-27)
(0.5 8.55366e-12 -1.90798e-30)
(0.5 1.16243e-12 -1.70284e-27)
(0.5 4.94818e-12 -1.77212e-27)
(0.5 -4.37482e-12 0)
(0.5 2.22447e-12 2.07051e-27)
(0.5 -6.6981e-12 -5.1711e-27)
(0.5 1.9904e-12 1.96337e-27)
(0.5 4.29523e-11 -1.46035e-27)
(0.5 -4.40968e-12 -1.04398e-27)
(0.5 -5.97351e-11 2.98703e-28)
(0.5 -6.46001e-12 -6.63952e-29)
(0.5 -3.31939e-13 6.4525e-27)
(0.5 5.67119e-13 0)
(0.5 6.23773e-12 -1.32458e-27)
(0.5 -3.78347e-12 -3.68976e-27)
(0.5 2.81991e-12 -1.1901e-27)
(0.5 7.9849e-12 0)
(0.5 -4.7711e-12 4.35342e-27)
(0.5 1.1107e-12 0)
(0.5 1.4068e-12 1.93852e-27)
(0.5 -5.44672e-12 4.50223e-28)
(0.5 -7.56443e-13 3.55212e-27)
(0.5 1.44329e-14 0)
(0.5 5.39334e-12 0)
(0.5 7.89123e-12 -6.62797e-27)
(0.5 1.80396e-11 -1.8682e-27)
(0.5 5.88577e-12 1.80438e-27)
(0.5 1.86841e-11 2.27952e-27)
(0.5 -1.2621e-11 0)
(0.5 -1.11835e-11 -2.83815e-27)
(0.5 3.80018e-11 2.39488e-28)
(0.5 1.90908e-13 3.77057e-27)
(0.5 4.12913e-12 -3.99194e-27)
(0.5 4.19531e-12 4.27377e-27)
(0.5 1.99772e-12 -2.02534e-27)
(0.5 -1.1212e-11 3.7879e-27)
(0.5 -1.59993e-11 -5.35264e-27)
(0.5 1.12455e-11 -7.71288e-31)
(0.5 2.78565e-12 -4.0028e-27)
(0.5 -2.82746e-12 -3.41476e-27)
(0.5 -4.51287e-13 0)
(0.5 4.59877e-12 1.07285e-27)
(0.5 4.35899e-12 2.2605e-27)
(0.5 3.5346e-11 0)
(0.5 1.71577e-11 2.06719e-29)
(0.5 -4.29633e-11 0)
(0.5 1.7737e-11 2.66347e-27)
(0.5 -3.59443e-11 5.49081e-28)
(0.5 2.34375e-12 5.52412e-30)
(0.5 -4.0287e-11 -1.0518e-27)
(0.5 3.55128e-12 0)
(0.5 6.96314e-13 1.67338e-27)