/*--------------------------------*- C++ -*----------------------------------*\
  =========                 |
  \\      /  F ield         | OpenFOAM: The Open Source CFD Toolbox
   \\    /   O peration     | Website:  https://openfoam.org
    \\  /    A nd           | Version:  7
     \\/     M anipulation  |
\*---------------------------------------------------------------------------*/
FoamFile
{
    version     2.0;
    format      ascii;
    class       volScalarField;
    location    "1";
    object      p;
}
// * * * * * * * * * * * * * * * * * * * * * * * * * * * * * * * * * * * * * //

dimensions      [0 2 -2 0 0 0 0];

internalField   nonuniform List<scalar> 
13182
(
-9.35877e-13
-1.25114e-13
-5.01399e-13
-9.81502e-13
-1.76715e-13
-8.05051e-13
-8.01607e-13
-9.10391e-13
-1.04223e-12
-2.28049e-13
-2.19262e-13
-3.54367e-13
-8.66498e-13
-8.70626e-13
-7.61178e-13
-7.95134e-13
-9.89452e-13
-9.66896e-13
-7.60791e-13
-7.62503e-13
-7.14127e-13
-9.10773e-13
-9.01266e-13
-6.90443e-13
-7.09039e-13
-7.07414e-13
-9.45802e-13
-7.00787e-13
-3.49373e-13
-9.8988e-13
-9.85177e-13
-1.04517e-12
-8.62998e-13
-2.12592e-13
-2.08428e-13
-7.6136e-13
-8.68172e-13
-3.9159e-13
-4.55923e-13
-8.86412e-13
-8.93359e-14
-8.68878e-14
-5.75746e-13
-1.9134e-14
-6.44192e-13
-1.82932e-13
-9.56171e-13
-4.96273e-13
-4.95252e-13
-9.32592e-13
-6.32032e-13
-6.2489e-13
-2.62879e-13
-9.0567e-13
-8.58105e-13
-6.94552e-13
-3.98029e-13
-9.46138e-13
-8.596e-13
-9.321e-13
-8.80307e-13
-9.00472e-13
-9.31804e-13
-7.76558e-13
-6.26568e-13
-6.16341e-13
-7.87606e-13
-6.817e-13
-1.74175e-13
-8.03778e-13
-3.13341e-14
-9.14947e-13
-9.18075e-13
-6.72854e-13
-1.06006e-13
-9.11156e-13
-1.0464e-12
-9.76006e-13
-9.29543e-13
-9.28091e-13
-1.03349e-12
-2.76055e-13
-7.40399e-13
-7.4239e-13
-9.54295e-14
-8.25027e-14
-6.92384e-14
-2.11372e-13
-7.04963e-13
-6.97192e-13
-3.04188e-13
-9.019e-13
-2.60283e-13
-2.58358e-13
-9.15522e-13
-9.79087e-13
-3.19077e-13
-8.6651e-13
-9.84696e-13
-7.9184e-13
-7.93252e-13
-4.09261e-13
-6.21318e-13
-8.20464e-13
-8.71508e-13
-6.25171e-13
-7.29382e-14
-6.31715e-14
-9.13884e-13
-4.60487e-13
-9.44615e-13
-1.6802e-13
-1.71792e-13
-8.10668e-13
-6.27835e-13
-2.84609e-13
-9.04244e-13
-6.5774e-14
-7.75428e-13
-7.31143e-13
-7.3513e-13
-1.89571e-13
-1.00086e-12
-7.39072e-13
-4.8294e-13
-4.77192e-13
-7.30544e-13
-1.02196e-12
-7.73994e-13
-3.89644e-13
9.24021e-16
-6.95636e-15
-9.40032e-13
-2.15001e-13
-8.08257e-13
-1.02839e-12
-1.04632e-12
-7.24643e-13
-7.80638e-13
-9.12889e-13
-2.13756e-13
-7.99492e-14
-7.94066e-14
-5.49738e-13
-5.59176e-13
-9.85376e-13
-8.75886e-13
-1.28186e-13
-9.48875e-13
-5.27929e-13
-1.99577e-14
-6.3189e-13
-6.40696e-13
-3.64212e-13
-7.01041e-13
-6.93661e-13
-4.77094e-14
-2.15035e-13
-1.15177e-13
-6.91044e-13
-6.91546e-13
-3.96096e-13
-3.90019e-13
-8.92542e-13
-9.11222e-13
-5.46576e-13
-9.34916e-13
-7.78588e-13
-5.43038e-13
-1.57275e-13
-2.72696e-13
-8.86079e-13
-8.85385e-13
-2.28895e-14
-4.55022e-13
-9.26959e-13
-1.2831e-13
-2.96903e-13
-9.22914e-13
-7.72285e-13
-7.0283e-13
-3.86133e-13
-8.90002e-13
-7.20215e-13
-2.95889e-13
-4.34703e-13
-4.3601e-13
-9.22451e-13
-6.41424e-13
-6.36267e-13
-3.78459e-13
-9.03226e-13
-4.46015e-13
-5.24412e-14
-8.96986e-13
-5.1714e-13
-3.84773e-13
-7.78641e-13
-6.93871e-13
-7.18911e-13
-9.35031e-13
-9.32757e-13
-4.40444e-14
-9.37611e-13
-2.88401e-13
-8.83246e-14
-3.07571e-13
-5.99972e-15
-8.67373e-13
-2.82693e-13
-5.02156e-13
1.38781e-15
-9.4076e-13
-8.49201e-13
-3.5778e-13
-7.93664e-13
-5.87359e-13
-8.63653e-13
-5.12829e-13
-8.76104e-15
-6.32211e-13
-6.85639e-13
-1.04577e-14
-7.72302e-13
-2.72133e-13
-8.65191e-13
-9.03687e-13
-9.71175e-13
-1.08675e-12
-9.1809e-13
-9.60786e-13
-9.12488e-13
-9.11278e-13
-8.69785e-13
-9.20931e-13
-9.4854e-13
-5.68417e-13
-9.48137e-13
-9.53263e-13
-8.67948e-13
-1.01988e-13
-9.23993e-14
-9.21336e-13
-9.05237e-13
-8.98801e-13
-8.60254e-13
-7.59256e-13
-7.57406e-13
-9.60434e-13
-7.19971e-13
-8.87404e-13
-3.00634e-13
-5.16085e-13
-5.0835e-13
-7.4505e-14
-9.11813e-13
-3.42013e-13
-2.87678e-15
-1.32153e-14
-1.98203e-13
-4.63092e-13
-1.02876e-12
-9.29958e-13
-1.11517e-12
-7.11219e-13
-5.57537e-13
-2.86571e-13
-9.85081e-13
-7.33768e-13
-9.96031e-13
-9.56944e-13
-9.61146e-13
-9.08836e-13
-3.43712e-13
-9.15942e-13
-3.39097e-13
-9.32978e-13
-9.31141e-13
-7.9838e-13
-1.20524e-13
-1.04472e-12
-4.30299e-13
-4.42601e-13
-8.1566e-13
-8.91091e-13
-4.0864e-13
-4.27609e-13
-1.03669e-12
-1.86328e-13
-8.96245e-13
-9.58438e-13
-2.91839e-13
-1.57214e-13
-6.55393e-13
-9.97038e-13
-9.01753e-13
-8.77141e-13
-8.76705e-13
-1.02733e-12
-1.03224e-12
-5.49284e-13
-7.27162e-13
-9.18606e-13
-9.13349e-13
-2.72742e-13
-2.0186e-13
-7.43995e-13
-7.58485e-13
-9.84713e-13
-5.52662e-13
-8.90181e-13
-9.89201e-13
-4.30708e-13
-9.55815e-13
-8.88014e-13
-9.95352e-13
-9.95123e-13
-8.58202e-13
-1.01169e-12
-3.09983e-13
-3.25773e-13
-1.80562e-13
-8.96321e-13
-8.87626e-13
-8.51532e-13
-9.61102e-13
-6.22643e-13
-8.36005e-13
-6.20553e-13
-5.17635e-13
-7.80843e-13
-7.63345e-13
-3.21311e-13
-3.13766e-13
-3.32691e-13
-7.53678e-13
-7.58703e-13
-7.56995e-13
-9.89136e-13
-2.73076e-13
-1.1496e-13
-9.32939e-13
-1.08232e-12
-1.83964e-13
-1.82069e-13
-9.57555e-13
-7.43353e-13
-7.38361e-13
-8.50738e-13
-6.73171e-13
-6.81051e-13
-9.35662e-13
-1.24958e-13
-9.05075e-13
-9.08133e-13
-8.95507e-13
-9.09486e-13
-9.13811e-13
-9.16912e-13
-8.66107e-13
-2.7858e-13
-9.29958e-13
-1.4877e-13
-9.11811e-13
-1.90684e-13
-1.81369e-13
-9.87543e-13
-8.29259e-13
-8.27509e-13
-5.22804e-13
-8.83208e-13
-9.26984e-13
-3.35702e-13
-4.8917e-13
-8.89887e-13
-8.6722e-13
-4.25797e-13
-2.48617e-13
-1.76623e-14
-8.25553e-13
-7.74269e-13
-3.36352e-13
-9.02486e-13
-8.72472e-13
-6.18714e-13
-6.29268e-13
-5.56811e-13
-9.40962e-13
-1.92053e-13
-8.18245e-13
-7.03757e-13
-1.06225e-12
-1.05884e-12
-7.37648e-13
-7.3749e-13
-9.45595e-13
-8.78545e-13
-2.72889e-13
-5.71143e-13
-9.5673e-13
-3.31554e-13
-3.45168e-13
-8.12716e-13
-8.72494e-13
-9.55698e-13
-3.57542e-13
-6.90199e-13
-1.03014e-12
-8.78649e-13
-6.2424e-13
-8.30101e-13
-8.28104e-13
-3.60828e-13
-5.85627e-13
-1.08776e-12
-1.60303e-13
-8.97066e-13
-2.92529e-13
-5.78728e-13
-8.92402e-13
-5.5109e-13
-8.81706e-13
-9.04765e-13
-8.95561e-13
-1.09702e-12
-2.42502e-13
-9.27358e-13
-5.88165e-13
-8.95523e-13
-9.14519e-13
-4.78145e-14
-7.06097e-13
-6.86917e-13
-9.48624e-13
-8.681e-13
-2.7305e-13
-9.04661e-13
-4.78334e-13
-2.6958e-13
-8.14059e-13
-1.42858e-13
-4.66017e-13
-5.69253e-13
-7.5684e-13
-6.25143e-13
-8.90338e-13
-1.95686e-13
-8.6602e-13
-2.59428e-13
-1.05322e-12
-9.47061e-13
-4.55751e-13
-4.59961e-13
-9.10757e-13
-2.05507e-13
-7.1698e-13
-1.10979e-12
-9.10369e-13
-9.6488e-13
-9.21998e-13
-1.04564e-12
-8.89629e-13
-2.06859e-13
-9.04713e-13
-9.78809e-13
-1.10036e-12
-4.90361e-13
-5.64303e-13
-1.00081e-12
-8.4346e-13
-8.44252e-13
-1.93263e-13
-1.0715e-12
-6.90392e-13
-2.16106e-13
-4.70965e-13
-9.4239e-13
-2.93774e-13
-9.38389e-13
-1.04207e-12
-1.03164e-12
-9.64783e-13
-5.9798e-13
-9.30765e-13
-9.12357e-14
-3.20613e-13
-7.83249e-13
-3.50261e-13
-1.78863e-13
-7.10893e-14
-9.58502e-13
-6.03478e-13
-8.782e-13
-2.15375e-13
-1.11474e-12
-3.89187e-13
-6.9865e-13
-8.24818e-14
-7.82812e-13
-2.45713e-13
-9.3132e-13
-9.47643e-13
-8.77765e-13
-2.15517e-13
-3.57858e-13
-8.25577e-13
-9.73056e-13
-9.60952e-13
-5.35665e-13
-4.12388e-13
-4.21089e-13
-3.96482e-13
-8.19284e-13
-7.29317e-13
-6.21626e-13
-8.85376e-13
-4.06189e-13
-9.68911e-13
-8.73919e-13
-2.16751e-13
-8.4826e-13
-9.09184e-13
-9.23634e-13
-4.61294e-13
-5.64273e-13
-5.55311e-13
-9.80172e-13
-6.91156e-13
-9.87014e-13
-6.86176e-13
-6.86244e-13
-9.56315e-13
-8.9198e-13
-9.13181e-13
-6.11255e-14
-8.33923e-13
-8.43738e-13
-3.53774e-13
-6.77781e-13
-6.74644e-13
-7.48135e-13
-2.9561e-13
-1.03691e-12
-3.84861e-13
-8.8978e-13
-5.794e-13
-5.90458e-13
-8.9267e-13
-4.14688e-13
-9.25719e-13
-9.89134e-13
-8.69432e-13
-8.71716e-13
-9.09064e-13
-9.03998e-13
-9.03879e-13
-1.09398e-12
-9.05704e-13
-7.19865e-13
-9.41045e-13
-1.91355e-13
-9.31362e-13
-9.22763e-13
-6.76547e-13
-9.65568e-13
-8.51694e-13
-6.90524e-13
-1.11629e-13
-3.75119e-13
-8.26692e-13
-7.5963e-13
-3.45833e-13
-3.5683e-13
-6.96102e-13
-8.82206e-13
-9.22723e-13
-9.45518e-13
-8.66804e-13
-8.93176e-13
-5.31356e-13
-7.587e-13
-2.70566e-13
-9.11811e-13
-8.98297e-13
-8.97872e-13
-7.86209e-13
-1.01719e-12
-8.98463e-13
-8.96034e-13
-4.854e-13
-4.90768e-13
-9.44381e-14
-9.37289e-13
-7.43591e-13
-8.1687e-13
-3.53281e-13
-5.59511e-13
-8.7749e-13
-1.11455e-12
-1.08088e-12
-9.15629e-13
-9.35536e-13
-8.27992e-13
-8.40916e-13
-2.43882e-13
-6.24303e-13
-2.34032e-13
-6.22776e-13
-8.86423e-13
-9.1412e-13
-1.04709e-12
-2.12089e-13
-8.96457e-13
-2.92766e-13
-5.60336e-13
-1.33856e-13
-3.42054e-13
-6.83594e-13
-2.79183e-13
-6.68374e-13
-8.93765e-13
-3.01824e-13
-9.0023e-13
-9.88644e-13
-2.82697e-13
-2.87494e-13
-1.03964e-12
-8.67297e-13
-2.7612e-13
-9.11039e-13
-1.0284e-12
-1.03401e-12
-7.46499e-13
-7.22415e-13
-2.755e-13
-3.60203e-13
-9.24205e-13
-8.90107e-13
-9.67561e-13
-8.60995e-13
-9.41975e-13
-3.06439e-13
-7.02549e-13
-9.35204e-13
-1.04205e-12
-2.06226e-13
-3.40351e-13
-9.11301e-13
-4.40196e-13
-2.57167e-13
-1.01592e-12
-1.01404e-12
-3.68988e-13
-8.69203e-13
-9.79893e-13
-2.84727e-13
-1.05588e-12
-5.13967e-13
-2.87944e-13
-3.11858e-13
-8.95074e-13
-4.51799e-13
-2.75421e-13
-7.50249e-13
-7.43054e-13
-7.3657e-13
-9.17643e-13
-9.09211e-13
-1.06001e-12
-6.12986e-13
-1.14068e-12
-8.18275e-13
-1.0436e-12
-7.57331e-13
-9.78097e-13
-2.12583e-13
-1.03355e-12
-9.23266e-13
-2.82031e-13
-9.53881e-13
-6.00577e-13
-9.71874e-13
-9.65101e-13
-3.53607e-13
-1.02799e-12
-3.17115e-13
-2.89734e-13
-3.0031e-13
-3.0251e-13
-9.55105e-13
-8.68956e-13
-8.67729e-13
-1.5954e-13
-3.24399e-13
-8.68471e-13
-8.70214e-13
-8.34852e-13
-7.42549e-13
-6.88271e-13
-2.83499e-13
-8.84454e-13
-8.71286e-13
-8.91625e-13
-9.27463e-13
-1.4074e-13
-6.2316e-13
-9.40383e-13
-9.45508e-13
-1.24877e-13
-6.81739e-13
-9.19159e-13
-9.58646e-13
-8.8348e-13
-8.71819e-13
-2.68544e-13
-3.22313e-13
-9.57489e-13
-9.61736e-13
-9.30508e-13
-4.49152e-14
-1.78035e-13
-3.52554e-13
-8.86725e-13
-7.66223e-13
-9.96989e-13
-1.07222e-12
-1.5973e-13
-1.06729e-13
-4.76309e-13
-1.1212e-12
-7.78032e-13
-8.06279e-13
-7.70674e-13
-8.94e-13
-8.30263e-13
-4.14561e-13
-9.32774e-13
-9.01616e-13
-7.66793e-13
-6.58749e-13
-6.62585e-13
-8.99306e-13
-6.63794e-13
-6.57444e-13
-1.08261e-12
-3.18019e-13
-7.41253e-13
-7.2943e-13
-8.01157e-13
-6.5722e-13
-1.03263e-12
-2.97616e-13
-7.35745e-13
-9.29351e-13
-1.74933e-13
-8.67875e-13
-6.46293e-13
-7.79748e-13
-1.0202e-12
-2.23474e-13
-9.01264e-13
-1.02268e-12
-2.48082e-13
-5.04897e-13
-9.25798e-13
-1.03434e-12
-7.26944e-13
-7.96781e-13
-3.72615e-13
-9.31703e-13
-1.07743e-13
-1.06703e-13
-8.9671e-13
-8.32717e-13
-1.00046e-12
-8.74524e-13
-2.84703e-13
-7.06062e-13
-9.87448e-13
-9.53253e-13
-7.12477e-13
-3.98364e-13
-9.60659e-13
-6.82257e-13
-4.66288e-14
-5.02008e-14
-1.05569e-12
-8.17575e-13
-8.16224e-13
-4.73039e-13
-5.81739e-13
-1.42586e-13
-9.17921e-13
-3.25442e-13
-7.59472e-13
-2.82321e-13
-9.26425e-13
-8.70064e-13
-9.1308e-13
-2.67143e-13
-3.4745e-13
-6.24998e-13
-3.54491e-13
-9.42334e-13
-1.45082e-13
-9.63152e-13
-6.5077e-13
-8.95559e-13
-9.23853e-13
-7.52182e-13
-6.85682e-13
-1.11385e-13
-2.71e-13
-3.70551e-13
-3.66275e-13
-1.6845e-13
-3.98088e-13
-9.56744e-13
-9.07484e-13
-6.46979e-13
-6.44439e-13
-1.07523e-12
-4.87757e-13
-7.88995e-13
-7.87917e-13
-8.97299e-13
-2.64582e-13
-2.14478e-13
-8.6148e-13
-7.75398e-13
-9.14444e-13
-7.78867e-13
-9.39211e-13
-9.57369e-13
-6.90113e-13
-7.43235e-13
-2.18461e-13
-2.10764e-13
-3.55758e-13
-6.53702e-13
-1.02409e-12
-3.2124e-13
-7.35004e-13
-1.0033e-12
-8.90803e-13
-7.40555e-13
-7.39222e-13
-3.35874e-13
-7.93743e-13
-5.3892e-13
-9.14069e-13
-8.67884e-13
-7.70294e-13
-9.2965e-13
-8.54831e-13
-5.26718e-13
-1.43421e-14
-1.07662e-12
-8.82168e-13
-4.99963e-14
-8.0707e-13
-1.9319e-13
-9.88359e-13
-1.57935e-13
-5.47449e-13
-9.50586e-13
-4.95285e-14
-7.54257e-13
-8.4659e-13
-1.02481e-12
-9.27768e-13
-9.18632e-13
-6.65459e-13
-1.05261e-12
-5.89018e-13
-9.04413e-13
-9.10522e-13
-3.87578e-14
-9.21814e-13
-6.09149e-13
-9.11248e-13
-9.59638e-13
-1.71794e-13
-3.9779e-13
-7.12581e-13
-9.14993e-13
-8.61584e-13
-9.93886e-13
-7.25478e-13
-7.18141e-13
-9.10898e-13
-3.76819e-14
-9.33389e-13
-9.23916e-13
-3.84567e-13
-8.94254e-13
-3.02731e-13
-6.44037e-13
-3.09737e-14
-8.45775e-13
-1.97268e-13
-8.24188e-13
-3.73601e-13
-9.82765e-13
-9.16754e-13
-9.33888e-13
-3.69382e-13
-3.64328e-13
-8.78839e-13
-1.79736e-13
-2.47453e-13
-2.00956e-13
-1.92514e-13
-4.90132e-13
-8.8527e-13
-5.11938e-13
-4.45261e-13
-4.4377e-13
-2.62012e-13
-9.41484e-13
-9.43289e-13
-4.44849e-13
-9.30964e-13
-9.32573e-13
-5.15209e-14
-1.01416e-12
-8.52837e-13
-8.07118e-13
-8.24987e-13
-9.64561e-13
-9.42229e-13
-8.97078e-13
-8.93291e-13
-3.88144e-13
-9.10346e-13
-8.8706e-13
-8.6328e-13
-8.01101e-13
-8.0243e-13
-7.63937e-13
-2.55485e-13
-6.47971e-13
-6.49227e-13
-9.59301e-13
-2.75107e-13
-5.28369e-13
-7.04914e-13
-3.04527e-13
-3.15969e-13
-6.73145e-13
-2.51396e-13
-9.16682e-13
-4.7272e-13
-7.63623e-13
-7.59181e-13
-4.56058e-13
-9.02713e-13
-2.00475e-13
-6.2858e-13
-8.65164e-13
-2.83137e-13
-1.04343e-12
-3.35281e-13
-3.52362e-13
-6.21781e-13
-1.05007e-12
-6.39412e-13
-9.96332e-13
-9.90554e-13
-8.77065e-13
-6.35504e-13
-9.16805e-13
-9.32509e-13
-7.66808e-13
-9.18825e-14
-2.783e-13
-7.27862e-13
-9.5537e-13
-8.67336e-13
-8.73212e-13
-7.87719e-13
-1.81698e-13
-8.94625e-13
-7.10339e-13
-9.58205e-13
-3.41724e-13
-9.70504e-13
-6.64744e-13
-7.42747e-13
-8.23518e-13
-7.69523e-13
-8.53239e-13
-7.72228e-13
-7.66245e-13
-8.62642e-13
-1.88542e-13
-7.99933e-13
-4.69798e-14
-9.32738e-13
-9.40901e-13
-9.36482e-13
-7.16397e-13
-8.65236e-13
-7.0882e-13
-9.64438e-13
-8.34435e-13
-8.34327e-13
-8.52752e-13
-1.91465e-13
-8.94095e-13
-2.08171e-13
-9.47651e-13
-1.0113e-12
-7.88085e-13
-7.94742e-13
-4.39305e-13
-2.67767e-15
-7.15681e-13
-2.73834e-13
-8.89573e-13
-8.81895e-13
-8.86503e-13
-8.80619e-13
-7.06452e-13
-7.08489e-13
-9.95904e-13
-8.60569e-13
-8.85158e-13
-1.14628e-12
-9.20192e-13
-1.05028e-12
-5.18999e-13
-5.21497e-13
-2.32891e-14
-4.17917e-13
-1.13621e-13
-8.61597e-13
-1.30041e-13
-1.043e-12
-4.1756e-13
-1.05252e-12
-1.05554e-12
-9.41941e-13
-8.95564e-13
-1.46855e-13
-8.15926e-13
-6.11233e-13
-8.90898e-13
-5.17516e-13
-9.1547e-13
-3.8235e-13
-4.68025e-13
-6.53268e-13
-9.3834e-14
-9.29624e-13
-1.98141e-13
-1.94859e-13
-7.67834e-13
-9.09002e-13
-9.45441e-13
-3.08658e-13
-6.244e-13
-8.62937e-13
-5.33888e-13
-7.35578e-13
-1.86208e-13
-7.03243e-14
-8.74674e-13
-6.17057e-13
-6.97028e-13
-4.76749e-13
-4.49876e-13
-4.37335e-13
-7.6673e-13
-1.08275e-12
-1.03788e-12
-7.75633e-13
-2.6898e-13
-3.54244e-13
-9.05439e-13
-8.74632e-13
-8.77256e-13
-2.24828e-13
-2.20965e-13
-9.98046e-13
-9.93237e-13
-1.05988e-12
-5.28947e-13
-5.88767e-13
-7.38024e-13
-1.64557e-13
-2.83501e-13
-9.15942e-13
-2.9876e-13
-3.06781e-13
-9.17237e-13
-7.29007e-13
-6.94264e-13
-6.88885e-13
-9.44501e-13
-7.66214e-13
-9.08203e-13
-1.60565e-13
-2.93246e-13
-4.45753e-13
-4.47376e-13
-8.86643e-13
-4.52007e-13
-8.81911e-13
-6.45145e-13
-6.48309e-13
-8.7483e-13
-8.08299e-14
-6.92599e-13
-2.96321e-13
-8.30161e-13
-9.15994e-13
-2.01158e-14
-4.56376e-14
-8.88635e-13
-1.06404e-13
-8.67894e-13
-8.06478e-14
-7.93154e-13
-9.22557e-13
-1.0229e-12
-9.4071e-13
-4.72351e-13
-8.13817e-13
-4.48304e-13
-8.22435e-13
-8.54065e-13
-8.52469e-13
-4.8654e-13
-4.72762e-13
-9.41664e-13
-1.44145e-13
-2.6215e-13
-9.09154e-13
-1.02086e-12
-1.02797e-12
-8.78989e-13
-3.20791e-14
-4.25929e-13
-4.27692e-13
-1.67995e-13
-9.10925e-13
-6.48253e-13
-7.51251e-13
-7.73786e-13
-1.67844e-13
-8.45748e-13
-4.07302e-13
-4.12966e-13
-1.10009e-12
-3.04543e-13
-9.1258e-13
-7.8459e-13
-3.81588e-13
-2.91616e-13
-9.58196e-13
-2.25716e-13
-2.12438e-13
-8.97178e-13
-6.0567e-13
-9.19394e-13
-8.41128e-13
-3.89581e-14
-6.00967e-13
-4.1768e-13
-9.30903e-13
-9.25555e-13
-9.13939e-13
-8.78565e-13
-9.70099e-13
-4.14337e-13
-8.52379e-13
-2.99826e-13
-6.72548e-13
-9.10517e-13
-7.61855e-13
-3.78298e-13
-1.01934e-14
-7.43333e-13
-9.43089e-13
-1.14962e-12
-7.44385e-13
-7.71832e-13
-1.20992e-13
-8.63093e-13
-7.41303e-13
-3.77209e-13
-6.46755e-13
-2.19763e-13
-8.03003e-13
-8.37589e-13
-8.34904e-13
-8.20963e-13
-6.26469e-13
-9.08584e-13
-8.53635e-13
-4.34491e-13
-3.72079e-13
-2.02997e-13
-2.02138e-13
-6.48669e-13
-8.95717e-13
-8.82224e-13
-4.33869e-13
-7.01279e-13
-9.08051e-13
-3.52314e-13
-9.36724e-13
-2.91468e-13
-7.96855e-14
-3.54168e-13
-9.77668e-13
-3.32074e-13
-8.28699e-13
-7.54638e-13
-6.23769e-13
-8.28901e-13
-7.43031e-13
-7.43685e-13
-5.85712e-13
-5.94655e-13
-7.48226e-13
-5.65717e-14
-9.67784e-13
-9.07242e-13
-2.78947e-13
-9.15712e-13
-2.4962e-13
-2.91502e-13
-4.76982e-13
-1.09918e-12
-9.20788e-13
-1.01257e-13
-1.01225e-13
-6.81233e-13
-8.15417e-13
-8.20401e-13
-7.71184e-13
-4.74926e-13
-1.88942e-13
-1.06015e-12
-1.06189e-12
-1.42434e-14
-6.76264e-13
-1.11732e-13
-7.06078e-13
-9.50397e-13
-9.59399e-13
-9.00528e-13
-8.76065e-13
-9.68292e-13
-5.37975e-13
-8.02921e-13
-7.56389e-13
-7.51138e-13
-2.3765e-13
-6.45076e-13
-8.17074e-13
-9.15098e-13
-4.25971e-13
-6.29693e-13
-6.30814e-13
-4.60009e-13
-4.98497e-13
-5.13184e-13
-3.23817e-13
-9.54337e-13
-9.99236e-13
-7.45996e-13
-7.14496e-13
-6.55782e-13
-6.60536e-13
-4.53473e-13
-5.50277e-13
-8.80913e-13
-9.21891e-13
-7.90642e-13
-7.30732e-13
-7.35082e-13
-5.39526e-13
-9.45825e-13
-9.38293e-13
-9.09899e-13
-4.75658e-13
-7.84514e-13
-7.31583e-13
-7.33091e-13
-8.13871e-13
-1.21531e-13
-9.41322e-13
-8.97096e-13
-1.13045e-13
-1.4321e-13
-8.2666e-13
-9.89312e-13
-9.89538e-13
-4.62622e-13
-9.60746e-13
-8.11061e-13
-1.8543e-13
-8.2123e-13
-8.43834e-13
-1.0218e-12
-1.01475e-12
-9.92904e-13
-9.64207e-13
-3.99923e-13
-9.19517e-13
-3.86891e-13
-3.98562e-13
-8.17151e-13
-6.28818e-13
-9.60359e-13
-4.38799e-13
-7.24818e-13
-7.37816e-13
-1.70281e-13
-1.58409e-13
-4.19116e-13
-4.77855e-14
-7.50163e-13
-9.43657e-14
-7.81959e-13
-8.90925e-13
-1.81732e-13
-6.2318e-13
-6.25274e-13
-8.91267e-13
-4.67612e-13
-8.38161e-13
-9.70996e-13
-4.11935e-14
-9.54315e-13
-8.69996e-13
-1.07626e-12
-8.26236e-13
-8.29806e-13
-5.35701e-13
-9.13232e-13
-1.08169e-12
-5.83808e-13
-8.89068e-13
-8.9873e-13
-3.71094e-13
-3.77092e-13
-9.07254e-13
-4.73525e-13
-9.49388e-13
-8.62902e-13
-8.81413e-13
-8.84957e-13
-1.92527e-13
-8.68796e-13
-9.61519e-13
-4.08779e-14
-1.75514e-13
-6.15261e-13
-9.09233e-13
-6.55678e-13
-8.45517e-13
-8.22751e-13
-6.75767e-13
-8.90395e-13
-8.19159e-13
-9.68851e-13
-9.49582e-13
-8.94496e-13
-9.69726e-13
-1.10542e-12
-1.02376e-12
-4.11555e-13
-8.8144e-13
-8.84177e-13
-8.95044e-13
-5.49295e-13
-5.4395e-13
-8.92292e-13
-7.40213e-13
-8.68685e-13
-9.06757e-13
-8.38882e-13
-1.093e-12
-2.92471e-13
-5.11431e-13
-9.42333e-13
-8.40796e-13
-7.46546e-13
-3.76119e-13
-6.96818e-13
-7.96445e-13
-9.58364e-13
-2.31573e-13
-7.87454e-13
-9.14503e-13
-1.01833e-12
-1.02346e-12
-8.91688e-13
-1.0432e-12
-8.99241e-13
-3.07699e-13
-9.92464e-13
-8.97679e-13
-9.09575e-13
-6.73482e-13
-9.72264e-13
-5.31783e-13
-4.02231e-13
-9.0097e-13
-8.98349e-13
-8.2221e-13
-5.96609e-14
-8.19952e-13
-5.53729e-13
-6.39757e-13
-6.92018e-13
-6.97313e-13
-6.99499e-13
-4.521e-13
-7.90578e-13
-1.04805e-12
-8.65468e-13
-5.86239e-13
-8.18717e-13
-5.34665e-13
-5.29815e-13
-9.33829e-13
-6.94365e-13
-6.94224e-13
-6.10631e-13
-4.52946e-13
-9.03785e-13
-7.18167e-13
-9.1152e-13
-1.08654e-12
-6.14853e-13
-8.69573e-13
-1.03224e-12
-1.03016e-12
-1.0051e-13
-6.71652e-13
-6.44423e-13
-7.80162e-14
-5.1978e-13
-3.08913e-13
-9.14421e-13
-8.86877e-13
-9.63455e-13
-7.48953e-13
-1.96504e-13
-2.03127e-13
-9.55162e-13
-6.94751e-13
-1.05102e-12
-2.79681e-13
-1.0513e-12
-1.05141e-12
-9.86728e-13
-8.23817e-13
-3.98148e-13
-8.37137e-14
-2.52255e-13
-5.82222e-13
-6.23071e-13
-9.20612e-13
-1.65177e-13
-1.65784e-13
-1.5723e-13
-9.66009e-13
-9.66825e-13
-9.19502e-13
-6.86279e-13
-5.55045e-13
-6.46255e-13
-4.73251e-13
-3.53142e-13
-5.2346e-13
-2.72435e-13
-7.5909e-13
-9.07975e-13
-8.61742e-13
-8.68077e-13
-8.72904e-13
-2.73685e-13
-5.90541e-13
-8.66278e-13
-4.17216e-13
-3.57752e-13
-4.65642e-13
-1.61257e-13
-8.55015e-13
-8.57784e-13
-9.56868e-13
-4.33393e-13
-6.04474e-13
-8.92152e-13
-8.86663e-13
-5.41219e-13
-5.60751e-13
-1.55816e-13
-9.106e-13
-4.77115e-13
-4.46316e-14
-7.44634e-13
-3.62916e-13
-2.07992e-13
-1.16822e-13
-9.06232e-13
-9.05086e-13
-2.49559e-13
-8.62635e-13
-6.29749e-14
-1.05173e-12
-9.13269e-13
-3.74456e-13
-9.15852e-13
-9.15988e-13
-7.16042e-13
-9.54473e-13
-2.787e-13
-3.40624e-13
-7.66456e-13
-6.81313e-13
-1.03935e-12
-8.8567e-13
-7.16827e-13
-1.26833e-13
-2.08635e-13
-8.94979e-13
-8.98932e-13
-8.99983e-13
-1.13826e-12
-3.75103e-13
-9.36253e-13
-3.20329e-13
-3.22386e-13
-9.22214e-13
-8.99218e-13
-9.48751e-13
-1.04887e-12
-2.61089e-13
-2.59692e-13
-7.77403e-14
-6.20269e-13
-6.25131e-13
-8.07137e-13
-8.05031e-13
-7.60205e-13
-1.06452e-12
-2.29796e-13
-9.05053e-13
-7.12563e-13
-1.10004e-12
-1.52963e-13
-9.1486e-13
-5.43129e-13
-3.0739e-13
-3.10042e-13
-1.18674e-13
-7.28797e-13
-7.70065e-13
-1.62583e-13
-1.68861e-13
-7.43958e-14
-1.29259e-13
-9.10984e-13
-3.71564e-13
-2.37372e-13
-2.52368e-13
-9.43258e-13
-1.79261e-13
-7.71947e-13
-9.78045e-13
-6.91783e-14
-8.92039e-13
-5.69913e-13
-1.35584e-13
-6.53558e-13
-3.85153e-13
-7.47432e-13
-7.16294e-13
-1.71907e-13
-9.06313e-13
-8.92475e-13
-9.42182e-13
-8.61888e-13
-9.00516e-13
-1.1485e-12
-1.51526e-13
-6.98748e-13
-9.63762e-13
-3.99649e-13
-3.54614e-13
-9.23201e-13
-9.45042e-13
-8.74733e-13
-5.7002e-13
-9.16717e-13
-8.81403e-13
-8.83894e-13
-1.06995e-12
-8.96312e-13
-1.89305e-13
-1.80812e-13
-7.1255e-13
-9.1209e-13
-9.05747e-13
-9.04712e-13
-9.71463e-13
-9.76108e-13
-7.29253e-13
-9.13111e-13
-8.54174e-13
-8.85797e-13
-8.64525e-13
-9.01188e-13
-1.4615e-13
-1.0642e-12
-8.92895e-13
-1.80271e-13
-8.98463e-13
-4.01665e-13
-9.15669e-13
-3.01647e-13
-1.02014e-12
-9.65444e-13
-9.42358e-13
-3.42687e-13
-3.56854e-13
-9.36353e-13
-1.04636e-12
-9.31862e-13
-9.33445e-13
-7.92446e-14
-4.00511e-13
-8.19528e-13
-8.83922e-13
-7.70879e-13
-7.13811e-13
-9.08775e-13
-1.0874e-12
-8.46249e-13
-9.33829e-13
-7.29392e-13
-9.44967e-13
-7.94152e-13
-8.00773e-13
-9.04117e-13
-6.6367e-13
-8.95108e-13
-6.37036e-13
-8.99552e-13
-7.99654e-14
-2.93968e-13
-9.12984e-13
-1.94247e-13
-5.46012e-13
-5.08119e-13
-1.03689e-13
-8.9689e-13
-7.49076e-13
-8.84565e-13
-8.96962e-13
-4.60677e-13
-2.4211e-14
-8.9559e-13
-9.46328e-13
-4.33852e-13
-1.94942e-13
-3.25351e-13
-3.25004e-13
-3.77693e-13
-6.01891e-13
-9.08043e-13
-9.0593e-13
-6.94827e-13
-4.55881e-13
-9.0531e-13
-9.15229e-13
-9.2251e-13
-8.3475e-13
-8.60495e-13
-6.92169e-13
-4.25666e-14
-9.16782e-13
-5.24968e-13
-5.2731e-13
-2.80487e-13
-4.78592e-13
-1.11882e-12
-1.13757e-12
-7.77026e-13
-9.3805e-14
-5.12491e-13
-9.70851e-13
-2.14136e-13
-9.09618e-13
-9.60531e-13
-2.6134e-13
-2.6326e-13
-8.40682e-14
-3.24117e-13
-9.82086e-13
-9.40464e-13
-8.22526e-13
-1.02777e-12
-9.27783e-13
-7.57294e-13
-1.04464e-12
-9.61034e-13
-8.51579e-13
-9.50567e-13
-3.61325e-13
-9.1157e-13
-2.42771e-13
-2.37753e-13
-3.60838e-13
-8.1744e-13
-8.83407e-13
-8.94831e-13
-9.20167e-13
-1.68851e-13
-9.79594e-13
-8.83476e-13
-6.37937e-13
-6.36574e-13
-5.52997e-13
-5.41235e-13
-8.13469e-13
-8.1807e-13
-7.85018e-13
-9.38703e-13
-2.08447e-13
-8.65978e-13
-8.69095e-14
-6.75747e-13
-9.19063e-13
-1.72452e-13
-9.57142e-13
-9.54146e-13
-9.44824e-13
-8.65727e-13
-8.72137e-13
-8.77542e-13
-8.19898e-13
-1.13801e-12
-8.76824e-13
-6.62788e-13
-9.7151e-13
-8.03859e-13
-8.97693e-13
-3.14972e-13
-3.49045e-13
-4.35372e-13
-7.61486e-13
-1.11405e-12
-1.11729e-12
-4.41369e-13
-6.78904e-13
-9.51384e-13
-8.35783e-13
-8.99294e-13
-1.66001e-13
-2.9066e-13
-2.34008e-13
-2.54677e-13
-1.07724e-12
-7.29562e-13
-8.58288e-13
-5.90513e-13
-9.15294e-13
-9.64841e-13
-9.38035e-13
-8.70048e-13
-1.72921e-13
-1.78784e-13
-4.26126e-13
-3.09993e-13
-9.38666e-13
-9.86317e-13
-8.00063e-13
-4.23687e-14
-9.6256e-13
-2.78599e-13
-5.34694e-13
-9.47038e-15
-5.05806e-13
-5.10428e-13
-8.09727e-13
-1.94339e-13
-7.86174e-13
-7.97472e-13
-8.02062e-13
-7.40976e-13
-7.46087e-13
-9.0063e-13
-1.03544e-12
-3.2803e-13
-1.02127e-12
-1.09508e-12
-2.50462e-13
-9.03238e-13
-3.39638e-13
-7.85994e-13
-7.82851e-13
-9.39886e-13
-9.38614e-13
-5.41898e-13
-8.97265e-13
-8.93588e-13
-8.88817e-13
-2.89851e-13
-4.62438e-13
-4.64039e-13
-9.12966e-13
-1.58643e-13
-9.07873e-13
-4.29518e-13
-4.56564e-13
-8.37365e-13
-8.0933e-13
-9.01678e-13
-3.94709e-14
-9.02628e-13
-9.11395e-13
-7.29825e-13
-1.70443e-13
-1.00881e-12
-9.43463e-13
-6.9672e-13
-1.0807e-12
-7.21881e-13
-9.04894e-13
-6.52239e-13
-9.60839e-13
-3.41564e-13
-2.17235e-13
-2.38345e-13
-8.95766e-13
-3.65558e-13
-8.9232e-13
-7.23343e-13
-8.19348e-13
-3.81785e-13
-5.69373e-13
-7.39955e-13
-8.81699e-13
-8.81906e-13
-9.04782e-13
-8.12186e-13
-8.22386e-13
-2.61869e-13
-1.05065e-12
-6.49851e-13
-6.44242e-13
-3.02449e-13
-9.3176e-13
-4.44236e-13
-1.58845e-13
-6.91996e-13
-1.02737e-12
-1.01983e-12
-9.15915e-13
-9.17749e-13
-1.0938e-12
-6.81001e-13
-2.53008e-13
-8.58013e-13
-8.48119e-14
-2.48781e-13
-7.14303e-13
-7.10251e-13
-3.21015e-14
-9.91212e-13
-2.22859e-13
-8.2402e-14
-9.58488e-13
-2.7816e-13
-9.27771e-13
-2.20973e-13
-5.1351e-13
-9.5945e-13
-9.00514e-13
-1.06606e-12
-9.0518e-13
-7.44651e-13
-9.33229e-13
-8.99133e-13
-9.17446e-13
-8.69418e-13
-1.00488e-12
-4.31e-13
-7.39819e-13
-1.95868e-13
-8.18445e-13
-3.13051e-13
-1.8793e-13
-4.71604e-13
-3.4578e-13
-9.03334e-13
-6.84684e-13
-6.87007e-13
-1.67319e-13
-7.58242e-13
-9.26514e-13
-7.22858e-13
-1.256e-14
-8.86247e-15
-9.12584e-13
-7.45019e-13
-1.64872e-14
-5.34603e-13
-9.12678e-13
-9.14242e-13
-1.96403e-13
-8.52838e-13
-8.94622e-13
-8.77528e-13
-2.36177e-13
-2.45599e-13
-5.2763e-14
-7.46069e-13
-7.45415e-13
-9.68404e-13
-7.26022e-13
-7.29929e-13
-1.58907e-14
-2.06215e-13
-5.41862e-13
-4.29465e-14
-7.17331e-13
-8.67023e-13
-2.23819e-13
-1.69549e-13
-4.99535e-14
-8.75099e-13
-9.10513e-13
-9.06197e-13
-1.03306e-12
-1.03755e-12
-8.5897e-13
-3.72636e-13
-3.10626e-13
-9.46727e-13
-9.50028e-13
-9.59835e-13
-9.66441e-13
-1.09154e-12
-9.04352e-13
-9.12628e-13
-6.66301e-13
-2.04785e-13
-6.06085e-13
-6.5046e-13
-2.90827e-13
-7.64315e-13
-9.14536e-13
-9.06655e-13
-3.89091e-13
-6.84589e-13
-8.85166e-13
-1.02006e-12
-1.14438e-12
-1.35072e-13
-5.27486e-13
-8.05384e-13
-2.75017e-13
-9.64757e-13
-8.94493e-13
-6.79459e-13
-6.84402e-13
-4.38596e-13
-8.012e-13
-7.97504e-13
-3.72943e-13
-1.00052e-12
-9.15783e-13
-8.24087e-13
-8.16111e-13
-8.23323e-13
-1.55576e-13
-4.61249e-13
-4.57925e-13
-9.02543e-13
-1.00545e-12
-6.98615e-13
-1.26762e-13
-1.14932e-13
-5.66574e-14
-3.44344e-13
-2.1055e-13
-9.13251e-13
-8.93733e-13
-8.70343e-13
-1.16508e-13
-7.93908e-13
-1.07522e-12
-8.82519e-13
-7.14203e-13
-9.54918e-13
-1.07995e-12
-1.08666e-12
-7.69663e-13
-9.19977e-13
-9.43028e-13
-1.05363e-13
-9.79393e-13
-9.44573e-13
-4.78495e-13
-4.55497e-13
-7.96328e-13
-8.58093e-13
-8.54995e-13
-9.17984e-13
-6.8025e-13
-9.43241e-13
-1.765e-13
-4.57613e-13
-4.55276e-13
-6.04991e-13
-6.06412e-13
-6.0876e-13
-6.14703e-13
-4.10922e-13
-6.67034e-13
-1.23479e-13
-1.11973e-13
-1.07726e-12
-1.03276e-12
-1.04062e-12
-1.06823e-12
-7.45559e-14
-4.41817e-14
-8.18669e-13
-8.69562e-13
-6.42003e-13
-3.02398e-13
-2.81963e-13
-8.33524e-13
-6.68789e-13
-8.06503e-13
-8.97198e-13
-4.13622e-14
-2.74194e-13
-6.12921e-13
-8.13465e-13
-8.1529e-13
-6.5887e-13
-9.94183e-13
-9.48861e-13
-9.04191e-15
-2.41731e-15
-9.0872e-13
-2.74825e-13
-9.16721e-13
-4.46636e-13
-2.20773e-13
-7.06158e-13
-8.51625e-13
-8.36612e-13
-3.35956e-13
-2.91996e-13
-8.84088e-13
-8.61374e-13
-9.2648e-13
-1.2322e-13
-1.04985e-12
-3.30366e-13
-3.29207e-13
-9.44442e-13
-5.88487e-13
-9.33532e-13
-8.47199e-13
-8.45533e-13
-2.03209e-13
-3.9606e-13
-1.75543e-13
-5.71826e-14
-6.91497e-14
-7.95381e-14
-8.81977e-13
-8.92471e-13
-8.20029e-13
-7.42107e-13
-9.27512e-13
-9.41393e-13
-9.42857e-13
-7.23187e-13
-5.58908e-13
-8.71294e-14
-9.42855e-13
-9.07086e-13
-6.43597e-13
-7.44092e-13
-7.40627e-13
-3.23275e-13
-7.95494e-13
-8.6898e-13
-5.28777e-13
-9.27507e-13
-9.61054e-13
-9.46204e-13
-9.46199e-13
-7.19768e-15
-5.20902e-13
-1.13852e-12
-8.15203e-13
-8.15308e-13
-7.40969e-13
-8.99315e-13
-9.03494e-13
-4.46865e-13
-2.27783e-13
-9.05749e-13
-6.2503e-13
-7.69485e-13
-7.68865e-13
-9.12978e-13
-6.05602e-13
-7.94386e-13
-5.95862e-13
-6.15085e-13
-4.31357e-13
-1.04616e-12
-9.12741e-13
-9.6131e-13
-1.03523e-12
-1.47206e-13
-8.80996e-13
-2.30491e-13
-3.1165e-13
-7.95311e-13
-5.47733e-13
-9.33523e-13
-7.83892e-13
-3.70616e-13
-4.48563e-13
-3.84568e-14
-5.04281e-13
-2.48849e-13
-9.44735e-13
-9.11528e-13
-9.69818e-13
-2.62583e-14
-3.16684e-14
-8.81781e-13
-8.12458e-13
-3.09656e-13
-7.7815e-13
-8.97616e-13
-8.42385e-13
-1.03621e-12
-9.06566e-13
-4.6774e-13
-5.15373e-13
-5.00682e-13
-1.11271e-12
-1.02459e-12
-9.22825e-13
-9.23401e-13
-8.20807e-13
-8.10484e-13
-3.73699e-13
-5.69485e-13
-3.70373e-13
-7.63693e-13
-7.84722e-13
-7.15259e-13
-8.62109e-13
-9.50936e-13
-8.85268e-13
-8.82535e-13
-9.51664e-13
-8.63188e-13
-1.42106e-13
-6.2652e-13
-6.16097e-13
-9.0719e-13
-9.03784e-13
-9.30595e-13
-1.93865e-13
-3.63782e-13
-6.21321e-13
-6.2286e-13
-5.52097e-14
-5.54633e-13
-3.10426e-13
-7.524e-13
-3.87384e-13
-3.9659e-13
-3.11093e-13
-9.49918e-13
-8.89658e-13
-1.02467e-12
-9.43537e-13
-9.11663e-13
-4.73912e-13
-4.48397e-13
-8.60696e-13
-8.07106e-13
-3.34884e-13
-1.2477e-13
-1.25328e-13
-8.77182e-13
-5.20326e-13
-5.31954e-13
-1.32414e-13
-1.30659e-13
-9.83071e-13
-2.48827e-13
-2.48677e-13
-2.83387e-13
-9.75753e-13
-9.14539e-13
-2.6e-14
-2.74731e-13
-8.09284e-13
-7.9125e-13
-3.77466e-13
-5.25237e-13
-7.95552e-13
-9.99083e-13
-1.21207e-13
-4.71722e-13
-6.95275e-13
-9.403e-14
-8.83863e-13
-9.11028e-13
-6.86661e-13
-8.14294e-13
-1.05843e-12
-1.05727e-12
-9.15919e-13
-3.9033e-13
-3.20393e-13
-5.01368e-13
-7.74928e-13
-9.29803e-13
-4.00327e-13
-6.41502e-13
-9.22102e-13
-9.01022e-13
-1.24707e-13
-3.96034e-13
-6.90753e-13
-4.5743e-13
-1.22557e-13
-6.08462e-13
-3.04432e-13
-8.13919e-13
-7.34869e-13
-1.0565e-12
-6.36917e-13
-9.40216e-13
-1.00179e-12
-6.2428e-13
-7.91021e-13
-1.97773e-13
-1.97891e-13
-4.48945e-13
-6.68809e-13
-5.17389e-13
-4.86813e-14
-7.87768e-13
-7.50368e-13
-7.94814e-13
-1.24737e-13
-6.7845e-13
-9.17893e-13
-1.06275e-12
-1.05853e-12