/*--------------------------------*- C++ -*----------------------------------*\
  =========                 |
  \\      /  F ield         | OpenFOAM: The Open Source CFD Toolbox
   \\    /   O peration     | Website:  https://openfoam.org
    \\  /    A nd           | Version:  7
     \\/     M anipulation  |
\*---------------------------------------------------------------------------*/
FoamFile
{
    version     2.0;
    format      ascii;
    class       volVectorField;
    location    "1";
    object      U;
}
// * * * * * * * * * * * * * * * * * * * * * * * * * * * * * * * * * * * * * //

dimensions      [0 1 -1 0 0 0 0];

internalField   nonuniform List<vector> 
13182
(
(0.5 -2.8832e-18 7.28591e-33)
(0.5 -8.73636e-17 0)
(0.5 9.09472e-18 1.83101e-32)
(0.5 -4.07572e-17 -5.6885e-32)
(0.5 2.16656e-17 1.31793e-33)
(0.5 -7.92534e-17 2.54921e-32)
(0.5 -9.73041e-17 4.8856e-32)
(0.5 7.07283e-17 -6.02302e-32)
(0.5 -4.43015e-17 -3.4391e-32)
(0.5 4.07958e-17 1.48062e-32)
(0.5 1.07881e-17 0)
(0.5 -7.04908e-18 -9.61783e-35)
(0.5 2.95173e-17 -3.17293e-33)
(0.5 -6.65411e-17 -6.08538e-32)
(0.5 -2.13166e-17 0)
(0.5 -3.1869e-17 2.43153e-32)
(0.5 -4.71851e-17 -1.59256e-32)
(0.5 -4.61238e-17 0)
(0.5 -2.38174e-17 -4.77877e-32)
(0.5 -6.14002e-17 0)
(0.5 5.1236e-17 -1.99393e-32)
(0.5 7.27206e-17 0)
(0.5 2.82374e-17 1.73785e-33)
(0.5 -6.66802e-17 8.80912e-32)
(0.5 4.24783e-19 5.28956e-33)
(0.5 5.24676e-17 0)
(0.5 4.68573e-17 0)
(0.5 -4.76276e-17 0)
(0.5 -3.79731e-17 6.13298e-33)
(0.5 -3.80674e-17 -9.92882e-32)
(0.5 -2.073e-17 0)
(0.5 1.38093e-18 6.29559e-32)
(0.5 -2.50962e-17 -1.26261e-32)
(0.5 8.87155e-21 7.45676e-33)
(0.5 2.74728e-17 -1.90937e-32)
(0.5 2.38006e-17 0)
(0.5 -8.56961e-17 0)
(0.5 2.48659e-17 -2.76225e-32)
(0.5 -5.13226e-17 0)
(0.5 6.89284e-17 -2.73992e-32)
(0.5 8.98614e-18 -3.12761e-34)
(0.5 6.28264e-17 3.06213e-33)
(0.5 4.1123e-17 2.02212e-32)
(0.5 -9.38025e-19 -1.30012e-33)
(0.5 9.3646e-20 -3.01613e-33)
(0.5 1.5378e-17 0)
(0.5 1.00392e-16 6.70673e-32)
(0.5 1.87165e-17 0)
(0.5 6.44285e-17 1.53014e-32)
(0.5 -5.71703e-17 0)
(0.5 6.17059e-18 0)
(0.5 -3.99512e-17 0)
(0.5 -1.14131e-17 8.92451e-33)
(0.5 8.49091e-17 2.25782e-32)
(0.5 -1.65421e-17 0)
(0.5 -8.29663e-17 0)
(0.5 -4.88635e-18 0)
(0.5 7.54692e-17 -2.35852e-32)
(0.5 -6.70222e-17 -2.7146e-32)
(0.5 -5.48943e-17 0)
(0.5 -2.06606e-17 0)
(0.5 -3.07342e-17 6.00518e-32)
(0.5 1.82486e-17 -2.64782e-32)
(0.5 -5.37678e-17 4.45373e-32)
(0.5 -1.06481e-16 4.54214e-32)
(0.5 -9.48619e-17 -8.2731e-32)
(0.5 4.43815e-18 -2.35292e-32)
(0.5 -4.34149e-17 1.12136e-32)
(0.5 2.85565e-17 -2.64723e-33)
(0.5 -5.0666e-17 -2.54869e-32)
(0.5 -1.03346e-17 -4.77653e-34)
(0.5 2.16952e-17 -1.58589e-32)
(0.5 9.56731e-17 3.3496e-32)
(0.5 -5.66388e-17 0)
(0.5 -3.52955e-17 6.33042e-33)
(0.5 4.42346e-18 6.04712e-32)
(0.5 -1.25859e-17 0)
(0.5 -4.4007e-18 1.7773e-32)
(0.5 -4.62366e-17 6.69509e-32)
(0.5 -5.33548e-17 -1.1681e-31)
(0.5 -7.86625e-17 -1.67268e-32)
(0.5 -5.29439e-19 1.7689e-32)
(0.5 -3.80265e-17 1.31138e-32)
(0.5 -3.20622e-17 -1.19737e-32)
(0.5 -5.20269e-17 -7.55943e-33)
(0.5 -2.24399e-17 0)
(0.5 3.70806e-17 0)
(0.5 4.02549e-18 -1.26115e-32)
(0.5 2.40952e-17 0)
(0.5 1.89967e-17 -2.10968e-32)
(0.5 -3.23162e-17 0)
(0.5 3.61452e-17 -3.20313e-32)
(0.5 -2.11504e-17 8.61496e-33)
(0.5 1.82668e-17 1.75569e-32)
(0.5 1.12838e-17 -5.93946e-32)
(0.5 1.0764e-17 0)
(0.5 -2.20982e-17 1.39522e-32)
(0.5 -3.63934e-17 1.43709e-32)
(0.5 -1.75044e-17 0)
(0.5 -2.2126e-18 0)
(0.5 -4.00807e-17 -1.49664e-32)
(0.5 -8.14579e-17 0)
(0.5 -1.43151e-16 0)
(0.5 -3.1374e-17 -5.03133e-32)
(0.5 2.81046e-17 -2.95629e-32)
(0.5 -4.14489e-17 -2.04934e-32)
(0.5 6.13854e-17 -4.78428e-33)
(0.5 -2.23245e-17 -4.85996e-33)
(0.5 6.68782e-18 -7.58956e-32)
(0.5 9.1448e-18 0)
(0.5 -1.08755e-16 7.22967e-32)
(0.5 3.18374e-17 9.9222e-33)
(0.5 1.3923e-17 -2.42222e-32)
(0.5 -5.67848e-17 -9.0344e-35)
(0.5 -4.81214e-17 1.92283e-32)
(0.5 -1.21806e-17 -2.35479e-32)
(0.5 5.13922e-17 3.87178e-32)
(0.5 -2.41447e-17 3.67501e-33)
(0.5 1.24664e-16 3.75965e-32)
(0.5 2.73899e-17 3.37364e-34)
(0.5 9.10407e-18 0)
(0.5 3.99162e-17 -1.48518e-32)
(0.5 -4.2576e-19 0)
(0.5 -3.66774e-17 -4.6926e-32)
(0.5 3.02897e-17 -1.66232e-32)
(0.5 3.89719e-17 0)
(0.5 5.45716e-17 -2.23525e-32)
(0.5 -2.28219e-17 1.54016e-32)
(0.5 7.02547e-17 -5.41201e-32)
(0.5 -3.0238e-17 0)
(0.5 -4.88872e-17 6.99384e-35)
(0.5 6.60174e-18 0)
(0.5 6.55945e-17 0)
(0.5 -6.97756e-17 -1.113e-32)
(0.5 -4.8579e-17 -7.64022e-32)
(0.5 -1.52866e-17 5.86812e-32)
(0.5 -2.7839e-17 4.66799e-33)
(0.5 1.85289e-17 -1.17703e-32)
(0.5 1.05496e-17 0)
(0.5 -1.06471e-17 1.01681e-31)
(0.5 3.30016e-17 2.10508e-32)
(0.5 -8.14622e-17 0)
(0.5 -5.07614e-17 4.6794e-33)
(0.5 -6.15505e-18 0)
(0.5 -2.76879e-17 2.16816e-32)
(0.5 -1.93141e-17 -1.50151e-34)
(0.5 2.44299e-17 0)
(0.5 -1.52397e-17 0)
(0.5 3.51347e-17 -3.13765e-32)
(0.5 -1.07722e-16 0)
(0.5 3.25984e-17 -1.22358e-33)
(0.5 -1.25052e-17 1.86569e-32)
(0.5 2.61712e-17 0)
(0.5 2.3561e-17 1.17358e-32)
(0.5 9.95852e-18 3.7221e-32)
(0.5 -2.74996e-17 4.15377e-32)
(0.5 1.03917e-17 0)
(0.5 3.70188e-17 -2.04068e-34)
(0.5 -1.18122e-16 -3.36355e-33)
(0.5 -2.36284e-17 0)
(0.5 -4.65809e-17 -2.19723e-32)
(0.5 2.2229e-17 -2.74467e-32)
(0.5 -6.14564e-17 1.31266e-32)
(0.5 5.88142e-18 -5.90018e-32)
(0.5 3.54127e-18 -1.14395e-34)
(0.5 -2.77786e-17 1.64838e-34)
(0.5 -8.09142e-18 3.32738e-32)
(0.5 1.42795e-17 -4.84666e-32)
(0.5 2.64727e-17 9.05956e-33)
(0.5 1.32014e-17 0)
(0.5 2.63854e-17 0)
(0.5 2.55705e-17 -3.07093e-32)
(0.5 -1.18401e-17 0)
(0.5 2.13813e-17 -8.28563e-34)
(0.5 -4.34969e-17 1.48202e-32)
(0.5 2.84633e-17 5.36686e-32)
(0.5 -6.99011e-17 0)
(0.5 -3.43927e-17 -1.1377e-32)
(0.5 -2.78178e-17 0)
(0.5 3.20938e-17 0)
(0.5 -1.14262e-16 -2.14528e-32)
(0.5 -4.23303e-18 -1.36428e-32)
(0.5 5.27858e-17 0)
(0.5 -4.17704e-17 7.31104e-32)
(0.5 5.68406e-17 -9.58508e-33)
(0.5 4.71946e-17 -1.45798e-32)
(0.5 6.42355e-19 2.79037e-32)
(0.5 5.56276e-18 -5.93738e-32)
(0.5 2.15141e-17 2.9003e-32)
(0.5 2.32922e-17 2.13722e-32)
(0.5 6.62581e-17 -1.17819e-32)
(0.5 -3.50014e-17 6.25592e-35)
(0.5 -3.35772e-17 -1.17404e-32)
(0.5 -3.30617e-17 0)
(0.5 1.05594e-17 6.26593e-32)
(0.5 -4.45093e-17 1.52326e-32)
(0.5 3.16651e-17 2.55194e-32)
(0.5 -2.68284e-17 1.20468e-32)
(0.5 -3.80274e-18 4.17444e-32)
(0.5 -1.70653e-17 1.12595e-32)
(0.5 -1.71907e-17 -5.80765e-32)
(0.5 -2.90924e-17 9.49309e-32)
(0.5 -6.28233e-17 1.35461e-33)
(0.5 -5.72964e-17 0)
(0.5 -7.27587e-18 8.36269e-35)
(0.5 2.75787e-17 6.41433e-33)
(0.5 5.27869e-17 -9.53685e-33)
(0.5 -5.94846e-17 0)
(0.5 1.93829e-17 3.54358e-32)
(0.5 -5.73966e-17 -9.25993e-33)
(0.5 7.65632e-17 0)
(0.5 -1.30114e-17 0)
(0.5 2.34276e-17 -5.67683e-32)
(0.5 -6.54435e-17 6.76006e-32)
(0.5 -3.28438e-17 0)
(0.5 -3.40196e-17 0)
(0.5 1.21439e-17 3.74757e-32)
(0.5 4.3565e-17 -6.13483e-32)
(0.5 1.32531e-17 -3.64404e-32)
(0.5 5.47789e-17 -2.17312e-34)
(0.5 3.16869e-17 0)
(0.5 -4.26477e-17 0)
(0.5 5.76623e-17 1.22522e-33)
(0.5 -3.09355e-17 1.34227e-32)
(0.5 -3.01641e-17 8.47694e-33)
(0.5 -1.23784e-16 -6.24238e-32)
(0.5 -2.88754e-17 2.76596e-32)
(0.5 -4.33613e-17 0)
(0.5 1.52175e-17 3.52875e-32)
(0.5 7.98642e-17 -1.1169e-31)
(0.5 3.24432e-17 3.14813e-32)
(0.5 -1.03462e-17 -3.0547e-32)
(0.5 -1.50346e-17 3.06494e-32)
(0.5 3.32833e-17 0)
(0.5 -3.60759e-17 -7.54542e-33)
(0.5 3.63167e-17 0)
(0.5 6.59194e-17 -4.21574e-34)
(0.5 -8.6957e-17 5.89964e-32)
(0.5 -1.04148e-16 0)
(0.5 9.92734e-18 -2.24033e-34)
(0.5 1.94568e-17 1.24085e-32)
(0.5 6.79889e-17 -6.46672e-33)
(0.5 1.1008e-17 -2.98048e-32)
(0.5 4.17736e-17 2.56992e-32)
(0.5 5.83501e-17 -8.32885e-32)
(0.5 -7.69881e-18 2.83229e-32)
(0.5 2.03889e-19 4.55925e-32)
(0.5 3.62328e-17 -8.88028e-32)
(0.5 -2.74738e-17 -3.42541e-33)
(0.5 -4.20917e-17 2.13249e-32)
(0.5 4.79042e-17 1.34667e-32)
(0.5 -3.81118e-17 -1.62355e-32)
(0.5 -9.9318e-17 5.26428e-32)
(0.5 -1.15741e-17 -1.59609e-32)
(0.5 4.2157e-18 -4.41048e-33)
(0.5 -1.75664e-18 -2.69156e-32)
(0.5 -9.6619e-17 -6.23712e-33)
(0.5 -1.12508e-16 -2.013e-34)
(0.5 3.25381e-17 -2.59229e-34)
(0.5 -2.72218e-17 -6.30629e-33)
(0.5 5.71651e-18 0)
(0.5 2.4983e-18 9.15486e-32)
(0.5 -7.84774e-17 2.95838e-32)
(0.5 6.14769e-17 0)
(0.5 -5.85454e-17 -2.58921e-32)
(0.5 -6.48276e-17 1.69154e-32)
(0.5 -6.75616e-17 8.42595e-33)
(0.5 -4.5773e-17 0)
(0.5 -5.53288e-17 -4.53429e-32)
(0.5 -1.85103e-18 -4.03994e-33)
(0.5 4.33387e-17 -6.07633e-32)
(0.5 3.55588e-17 -6.59906e-32)
(0.5 1.14585e-16 5.71598e-32)
(0.5 1.66654e-17 0)
(0.5 -1.69752e-17 0)
(0.5 9.48917e-20 -2.27226e-32)
(0.5 -1.33781e-17 6.09176e-32)
(0.5 -3.16195e-17 -8.60089e-32)
(0.5 -1.90656e-17 0)
(0.5 -4.76095e-19 0)
(0.5 -7.71632e-17 -6.923e-32)
(0.5 -1.63615e-17 1.32822e-32)
(0.5 1.8289e-17 0)
(0.5 -8.00251e-17 3.58381e-32)
(0.5 7.21074e-17 -6.95709e-33)
(0.5 -5.90472e-17 3.61948e-33)
(0.5 -1.80523e-17 2.54993e-32)
(0.5 3.45035e-17 -6.56115e-32)
(0.5 -6.19667e-17 6.21467e-33)
(0.5 2.27772e-18 -3.30175e-32)
(0.5 2.18085e-17 1.68453e-32)
(0.5 2.02994e-17 -9.35949e-33)
(0.5 1.0605e-16 4.7194e-33)
(0.5 -1.49603e-17 -1.14729e-32)
(0.5 -3.74929e-18 1.59454e-32)
(0.5 1.07239e-16 2.21719e-32)
(0.5 4.75596e-17 0)
(0.5 3.63835e-17 0)
(0.5 -1.9679e-17 -5.21042e-32)
(0.5 -4.57684e-17 -1.77164e-32)
(0.5 -4.59404e-17 1.84073e-32)
(0.5 7.30596e-17 6.33761e-32)
(0.5 2.58792e-17 2.92793e-32)
(0.5 4.15215e-17 1.54045e-32)
(0.5 -7.86419e-17 0)
(0.5 2.11882e-17 -1.34971e-32)
(0.5 -1.89359e-17 4.71967e-32)
(0.5 -3.12167e-18 2.46888e-32)
(0.5 -5.85242e-17 6.7859e-32)
(0.5 -6.09046e-17 7.70817e-35)
(0.5 6.00351e-17 0)
(0.5 2.06172e-17 -2.98993e-32)
(0.5 -3.22783e-17 -1.20818e-32)
(0.5 8.60211e-17 6.42221e-32)
(0.5 2.41577e-17 0)
(0.5 -4.54893e-17 -7.31292e-32)
(0.5 -4.33987e-17 6.20061e-32)
(0.5 -4.46614e-17 0)
(0.5 -1.12864e-16 1.19931e-31)
(0.5 -1.7e-16 1.04672e-32)
(0.5 9.13951e-18 -1.89846e-32)
(0.5 -2.74343e-17 5.82095e-33)
(0.5 -1.8639e-17 5.72429e-32)
(0.5 2.05974e-17 -2.83054e-32)
(0.5 -2.09239e-17 4.62839e-32)
(0.5 4.93706e-19 -6.13566e-32)
(0.5 5.82199e-18 -3.42198e-34)
(0.5 -1.13181e-17 0)
(0.5 -6.7098e-17 0)
(0.5 -8.90156e-17 -1.64918e-32)
(0.5 4.19617e-17 0)
(0.5 4.21916e-17 0)
(0.5 1.1159e-17 0)
(0.5 7.42546e-17 -2.03338e-32)
(0.5 -1.25618e-16 0)
(0.5 -5.47701e-17 3.15055e-33)
(0.5 -9.13115e-17 -4.76757e-32)
(0.5 -5.7201e-18 -2.46441e-32)
(0.5 6.32706e-17 0)
(0.5 1.01762e-16 9.70423e-33)
(0.5 2.22347e-17 3.76923e-33)
(0.5 6.31983e-18 0)
(0.5 2.18108e-17 -9.21924e-33)
(0.5 4.37275e-17 0)
(0.5 1.12717e-17 1.37661e-32)
(0.5 7.28166e-17 0)
(0.5 -4.45975e-18 4.88916e-32)
(0.5 8.27558e-18 0)
(0.5 -4.56435e-17 -5.53991e-32)
(0.5 -1.62717e-16 -4.80677e-32)
(0.5 -8.27468e-17 4.50367e-32)
(0.5 -4.71621e-17 -8.92188e-32)
(0.5 -4.53036e-17 4.16439e-33)
(0.5 3.65865e-17 5.56127e-32)
(0.5 6.22983e-17 -7.99541e-32)
(0.5 1.74737e-17 -2.55986e-32)
(0.5 -4.02455e-17 -4.55167e-32)
(0.5 -8.37096e-17 -4.78396e-32)
(0.5 -1.27457e-17 -1.49888e-32)
(0.5 2.18064e-17 5.70409e-32)
(0.5 -8.84734e-18 4.60473e-33)
(0.5 -6.04891e-17 0)
(0.5 -2.39074e-17 -5.49918e-33)
(0.5 6.84934e-17 1.64793e-32)
(0.5 3.33069e-18 -1.73293e-32)
(0.5 -6.07925e-18 0)
(0.5 -4.44559e-17 4.20916e-32)
(0.5 -2.28959e-17 5.81478e-32)
(0.5 2.48641e-18 1.69499e-34)
(0.5 -7.90036e-17 0)
(0.5 -3.05359e-17 -2.85023e-32)
(0.5 2.09393e-17 3.11321e-32)
(0.5 -8.25497e-17 -5.54101e-33)
(0.5 -1.33288e-17 -8.0683e-33)
(0.5 -4.19472e-17 -7.13416e-32)
(0.5 2.57531e-19 2.14903e-32)
(0.5 2.57856e-17 -3.25371e-32)
(0.5 8.05958e-17 -8.03565e-33)
(0.5 4.89179e-17 -1.63182e-34)
(0.5 1.56464e-17 6.70931e-33)
(0.5 1.29281e-16 -5.26881e-32)
(0.5 3.26201e-17 -2.09709e-32)
(0.5 -7.69526e-18 -5.64458e-32)
(0.5 -2.1756e-17 -2.90084e-32)
(0.5 5.44663e-17 -1.55181e-32)
(0.5 -8.38833e-17 -6.13234e-34)
(0.5 -2.8095e-17 -3.05543e-32)
(0.5 1.91105e-19 -1.57765e-32)
(0.5 6.69358e-18 7.39565e-34)
(0.5 1.48499e-17 3.37935e-35)
(0.5 -9.67151e-17 0)
(0.5 2.56668e-17 -4.51711e-33)
(0.5 -1.16216e-18 6.88086e-32)
(0.5 5.55427e-17 -2.25929e-32)
(0.5 -3.44292e-19 -1.98023e-32)
(0.5 1.56198e-17 0)
(0.5 -5.02074e-17 0)
(0.5 -2.25685e-17 9.17322e-33)
(0.5 -7.81736e-17 -4.45475e-32)
(0.5 -1.06533e-16 1.7093e-32)
(0.5 -1.14076e-16 0)
(0.5 -1.50183e-16 1.12268e-32)
(0.5 -2.86876e-18 -1.28805e-32)
(0.5 6.36863e-17 1.16111e-32)
(0.5 -2.08843e-17 4.37788e-32)
(0.5 -1.03357e-17 -2.48183e-32)
(0.5 -9.20009e-17 2.45201e-32)
(0.5 3.59885e-17 -6.68877e-32)
(0.5 -8.90602e-17 0)
(0.5 5.82415e-17 3.86061e-32)
(0.5 -4.24156e-18 5.31063e-32)
(0.5 2.38005e-17 0)
(0.5 -2.2487e-17 -2.75596e-33)
(0.5 -1.11874e-17 1.00066e-32)
(0.5 1.41512e-17 0)
(0.5 -3.15728e-18 -5.28814e-33)
(0.5 2.74299e-17 0)
(0.5 -4.83631e-18 -1.60046e-34)
(0.5 -1.31847e-16 0)
(0.5 2.68104e-17 0)
(0.5 -4.37189e-17 0)
(0.5 5.97002e-18 1.16377e-31)
(0.5 5.00229e-18 -7.291e-33)
(0.5 4.03248e-17 0)
(0.5 -2.14072e-18 0)
(0.5 1.24109e-16 -1.54145e-32)
(0.5 -9.08803e-18 -3.01142e-32)
(0.5 -4.60844e-17 -1.83134e-32)
(0.5 4.40963e-17 0)
(0.5 7.43915e-17 2.88733e-32)
(0.5 5.652e-17 1.36324e-33)
(0.5 -2.71495e-17 -4.68629e-32)
(0.5 -7.05505e-17 -5.68971e-33)
(0.5 1.96296e-17 -6.10598e-32)
(0.5 1.97478e-17 -3.13749e-32)
(0.5 -5.13683e-17 0)
(0.5 2.4106e-17 -2.74507e-32)
(0.5 8.15226e-18 -7.78514e-33)
(0.5 5.27555e-19 -1.59889e-32)
(0.5 -1.98606e-17 0)
(0.5 -4.92193e-17 9.07053e-33)
(0.5 -4.50315e-17 3.18255e-32)
(0.5 -6.83523e-17 0)
(0.5 2.84394e-17 2.63147e-32)
(0.5 -1.14641e-16 -6.2201e-32)
(0.5 9.56754e-17 0)
(0.5 -6.01628e-17 0)
(0.5 -8.67612e-18 0)
(0.5 -1.21877e-16 0)
(0.5 5.60254e-18 -3.38197e-32)
(0.5 4.14015e-17 5.82817e-32)
(0.5 4.61687e-17 -4.59949e-32)
(0.5 -7.22052e-18 -1.51257e-32)
(0.5 3.70476e-17 -1.57635e-32)
(0.5 6.64018e-17 -6.39242e-33)
(0.5 8.88572e-17 -4.70253e-32)
(0.5 2.6175e-17 0)
(0.5 3.82885e-17 0)
(0.5 5.47906e-18 0)
(0.5 1.26532e-17 -7.86406e-32)
(0.5 -4.71508e-17 3.21231e-32)
(0.5 1.53185e-17 -6.94518e-33)
(0.5 -1.01537e-16 -3.92598e-34)
(0.5 4.00984e-17 -4.80681e-32)
(0.5 -7.57096e-17 0)
(0.5 2.22104e-17 -7.76979e-32)
(0.5 1.83999e-17 1.69674e-32)
(0.5 -1.47933e-16 9.4437e-33)
(0.5 -2.55721e-17 -7.09118e-35)
(0.5 5.30181e-17 0)
(0.5 1.72164e-17 4.505e-32)
(0.5 -2.12039e-17 0)
(0.5 -3.36119e-17 6.84645e-32)
(0.5 -2.98507e-17 0)
(0.5 -1.16577e-17 7.74664e-33)
(0.5 -3.23788e-18 -1.59027e-32)
(0.5 2.74339e-17 1.60947e-32)
(0.5 -4.81569e-17 2.51045e-33)
(0.5 3.35541e-17 -1.5919e-32)
(0.5 -1.61122e-17 6.74026e-32)
(0.5 -8.72756e-17 0)
(0.5 3.14615e-17 5.84796e-32)
(0.5 -6.29067e-17 0)
(0.5 8.08512e-17 0)
(0.5 -3.89413e-17 3.09187e-33)
(0.5 8.13508e-17 9.78935e-33)
(0.5 8.85766e-18 7.03838e-32)
(0.5 -2.69214e-17 -3.40751e-32)
(0.5 -2.17943e-17 0)
(0.5 -4.41033e-17 -2.97251e-33)
(0.5 4.4279e-17 0)
(0.5 -2.15785e-17 -2.05446e-32)
(0.5 -4.72412e-17 2.79772e-32)
(0.5 -1.46866e-17 -1.87576e-32)
(0.5 1.54447e-17 0)
(0.5 -1.09834e-17 -1.27806e-32)
(0.5 -6.1863e-17 3.61072e-32)
(0.5 -8.01555e-17 1.73566e-34)
(0.5 2.5563e-17 0)
(0.5 -3.05877e-17 2.67493e-32)
(0.5 3.55893e-17 0)
(0.5 8.01213e-17 -3.32486e-32)
(0.5 -9.69587e-17 -1.46764e-32)
(0.5 -1.01437e-17 0)
(0.5 -4.76334e-17 1.19046e-32)
(0.5 2.56223e-17 6.79248e-33)
(0.5 4.3728e-17 0)
(0.5 4.194e-18 0)
(0.5 -2.53163e-17 5.06454e-32)
(0.5 -6.4582e-17 -1.5033e-32)
(0.5 8.24319e-17 -1.41864e-32)
(0.5 -2.6915e-17 0)
(0.5 1.55045e-17 0)
(0.5 1.24922e-16 -4.87974e-32)
(0.5 -2.53267e-17 -4.15832e-32)
(0.5 7.43109e-17 -2.37584e-35)
(0.5 -1.76853e-18 -2.40386e-32)
(0.5 -3.78285e-17 0)
(0.5 -7.50624e-17 3.017e-32)
(0.5 8.26059e-18 1.43978e-32)
(0.5 2.08141e-17 5.72357e-32)
(0.5 1.20018e-16 0)
(0.5 1.17913e-16 1.4971e-32)
(0.5 -3.87784e-17 -7.2341e-33)
(0.5 9.53374e-18 1.68673e-32)
(0.5 1.27085e-17 0)
(0.5 -5.96667e-17 -2.78739e-32)
(0.5 -2.16903e-18 0)
(0.5 -2.4354e-17 0)
(0.5 -1.89944e-17 2.19941e-32)
(0.5 -1.39181e-17 -2.13241e-32)
(0.5 9.88947e-17 4.8441e-32)
(0.5 1.19012e-18 -3.21336e-32)
(0.5 -4.20555e-17 -2.82212e-32)
(0.5 -6.9867e-18 1.79204e-33)
(0.5 3.42939e-17 2.69649e-32)
(0.5 5.92786e-17 -2.86296e-32)
(0.5 5.1402e-17 2.03187e-32)
(0.5 -6.09363e-18 0)
(0.5 -3.61217e-17 0)
(0.5 -6.09107e-17 0)
(0.5 3.33729e-17 1.8279e-32)
(0.5 -1.06024e-16 3.64862e-32)
(0.5 3.53169e-17 6.81237e-33)
(0.5 -4.06657e-17 6.1849e-32)
(0.5 -2.60461e-17 9.26002e-33)
(0.5 -6.39691e-17 -1.96803e-32)
(0.5 -7.69219e-18 5.54052e-32)
(0.5 -1.60913e-16 -2.72369e-32)
(0.5 -1.27556e-16 5.61942e-32)
(0.5 4.22517e-17 1.57563e-32)
(0.5 1.198e-16 -2.93709e-32)
(0.5 6.25178e-17 0)
(0.5 -8.99377e-17 4.61697e-32)
(0.5 -4.67789e-17 1.65707e-32)
(0.5 1.17462e-16 9.68535e-34)
(0.5 2.54318e-17 -1.76056e-32)
(0.5 3.09915e-17 -1.40704e-32)
(0.5 1.33443e-16 6.99164e-32)
(0.5 -1.78344e-16 -7.79911e-32)
(0.5 1.08772e-17 1.89958e-32)
(0.5 -4.06069e-17 0)
(0.5 6.18485e-18 7.54959e-32)
(0.5 9.78933e-17 2.38784e-32)
(0.5 -3.86278e-17 -6.0003e-32)
(0.5 -3.88617e-17 -5.4454e-32)
(0.5 5.33349e-17 2.25315e-32)
(0.5 6.87315e-18 -3.60773e-33)
(0.5 4.17954e-17 -1.94871e-32)
(0.5 1.95506e-17 0)
(0.5 2.62587e-17 6.08941e-33)
(0.5 -6.06713e-17 -2.27949e-32)
(0.5 -7.53243e-17 2.57801e-32)
(0.5 -1.02968e-17 2.41022e-32)
(0.5 -8.0294e-17 -5.27637e-32)
(0.5 6.20386e-17 6.31599e-32)
(0.5 -1.35502e-17 0)
(0.5 -2.35159e-17 -2.85186e-32)
(0.5 2.67026e-17 3.34647e-32)
(0.5 -5.30202e-17 -1.70475e-32)
(0.5 3.93876e-19 -4.91969e-32)
(0.5 -2.38377e-17 0)
(0.5 -8.23026e-17 -8.41545e-32)
(0.5 1.54373e-17 1.48942e-35)
(0.5 8.3704e-17 3.00452e-32)
(0.5 -9.02503e-19 1.37436e-32)
(0.5 5.08896e-17 0)
(0.5 4.46738e-17 -5.62811e-32)
(0.5 6.67125e-17 6.0933e-32)
(0.5 2.57381e-17 3.02881e-32)
(0.5 -1.06198e-17 3.10022e-32)
(0.5 -3.02978e-17 0)
(0.5 2.42364e-17 -5.48994e-32)
(0.5 4.40557e-17 4.67432e-32)
(0.5 2.33802e-17 7.40025e-32)
(0.5 8.06036e-17 2.24848e-32)
(0.5 -9.18701e-17 1.84296e-32)
(0.5 -4.04254e-17 0)
(0.5 3.56184e-17 -4.78427e-32)
(0.5 2.47296e-17 -8.03842e-32)
(0.5 8.92651e-18 -6.28056e-32)
(0.5 4.06605e-17 0)
(0.5 -6.94694e-17 0)
(0.5 -6.68245e-17 4.26862e-32)
(0.5 6.5665e-17 -4.26881e-33)
(0.5 -3.44312e-17 -4.42618e-34)
(0.5 3.22518e-17 4.50485e-33)
(0.5 -1.22412e-16 5.6994e-32)
(0.5 -1.00031e-17 2.91218e-32)
(0.5 3.07775e-17 0)
(0.5 -6.55514e-17 7.21189e-32)
(0.5 3.23242e-17 7.47239e-33)
(0.5 8.24621e-18 -2.68502e-32)
(0.5 -7.91716e-17 1.90316e-32)
(0.5 2.96368e-17 -1.75379e-32)
(0.5 5.44225e-18 -2.18419e-33)
(0.5 1.82213e-18 2.2758e-32)
(0.5 -2.2005e-17 -2.22753e-32)
(0.5 2.21727e-17 -7.08357e-33)
(0.5 9.09258e-17 -1.24957e-32)
(0.5 2.46196e-17 5.84689e-32)
(0.5 4.99338e-18 0)
(0.5 -2.5601e-17 0)
(0.5 -5.40644e-17 3.34116e-32)
(0.5 4.49628e-17 -1.85802e-32)
(0.5 5.94136e-17 2.57394e-32)
(0.5 -3.51109e-17 6.41712e-32)
(0.5 -1.03657e-16 6.41748e-32)
(0.5 -3.29223e-17 0)
(0.5 5.39068e-17 3.5046e-33)
(0.5 -3.58078e-17 -1.73808e-32)
(0.5 -1.35563e-17 0)
(0.5 5.31533e-17 0)
(0.5 -8.85754e-17 -5.70986e-33)
(0.5 -5.0944e-17 0)
(0.5 7.09222e-17 -2.30035e-32)
(0.5 -2.17662e-17 1.73613e-32)
(0.5 -5.28225e-17 7.07718e-33)
(0.5 -2.02567e-18 -2.56426e-32)
(0.5 5.41916e-17 2.5894e-35)
(0.5 1.86402e-17 -3.15807e-32)
(0.5 8.72346e-17 0)
(0.5 6.23569e-17 4.88607e-32)
(0.5 1.16499e-17 -5.90396e-32)
(0.5 -1.32086e-17 -8.59079e-35)
(0.5 -5.59112e-18 3.15996e-33)
(0.5 -8.15588e-17 0)
(0.5 -2.21042e-17 1.59834e-32)
(0.5 1.1343e-17 1.44246e-32)
(0.5 -3.84449e-17 -4.29469e-33)
(0.5 4.07282e-17 3.51531e-32)
(0.5 -5.9628e-17 -9.97494e-32)
(0.5 3.67447e-18 -1.25566e-32)
(0.5 6.25315e-17 1.38354e-32)
(0.5 -5.35705e-17 0)
(0.5 -3.90264e-17 1.51386e-32)
(0.5 1.90573e-17 -3.55621e-32)
(0.5 -5.02393e-17 -1.69841e-32)
(0.5 -8.32399e-18 -1.8886e-35)
(0.5 5.12988e-17 5.79861e-33)
(0.5 -6.6593e-17 8.55568e-32)
(0.5 -2.29574e-17 0)
(0.5 1.27016e-18 8.59024e-33)
(0.5 -7.48965e-17 -2.44339e-32)
(0.5 -5.6309e-17 -4.96604e-32)
(0.5 -8.12481e-17 -4.75476e-32)
(0.5 5.36528e-17 -5.96149e-32)
(0.5 9.94241e-18 2.94282e-32)
(0.5 -3.16438e-17 0)
(0.5 2.73047e-17 2.14276e-32)
(0.5 1.38209e-17 0)
(0.5 3.03822e-17 0)
(0.5 -2.0233e-17 0)
(0.5 2.36566e-17 4.52334e-32)
(0.5 -4.15984e-17 -3.63929e-33)
(0.5 -1.06791e-16 -6.99882e-33)
(0.5 1.28896e-17 1.37187e-32)
(0.5 -6.19587e-17 1.60863e-32)
(0.5 -3.27196e-17 -1.66189e-32)
(0.5 -2.39951e-17 -6.2264e-32)
(0.5 -2.26134e-17 -2.94177e-32)
(0.5 -1.09828e-16 -3.3864e-32)
(0.5 -3.98468e-17 0)
(0.5 1.05957e-18 -2.17384e-32)
(0.5 9.57663e-18 -7.24713e-32)
(0.5 2.00935e-17 0)
(0.5 5.55634e-17 0)
(0.5 -1.3661e-17 0)
(0.5 2.08741e-17 -4.82272e-33)
(0.5 3.1495e-18 6.30497e-32)
(0.5 -6.422e-17 -5.92836e-32)
(0.5 -7.64391e-17 8.26638e-32)
(0.5 -6.10945e-17 0)
(0.5 1.00244e-17 2.18365e-32)
(0.5 -4.2901e-17 5.86441e-32)
(0.5 -6.0908e-18 -4.84161e-32)
(0.5 -8.28381e-17 0)
(0.5 -5.71331e-17 0)
(0.5 2.24123e-17 -2.47939e-32)
(0.5 -5.29981e-17 -1.16911e-32)
(0.5 -7.03504e-17 7.04119e-33)
(0.5 1.93312e-17 0)
(0.5 2.32994e-17 -9.23836e-32)
(0.5 5.84922e-17 -6.51909e-32)
(0.5 -8.58401e-18 4.62661e-33)
(0.5 -3.27825e-17 0)
(0.5 -1.0633e-16 0)
(0.5 -7.76053e-17 2.96053e-32)
(0.5 7.2674e-18 6.34895e-33)
(0.5 -2.80303e-17 0)
(0.5 3.05175e-18 3.27154e-32)
(0.5 8.48792e-17 -1.44971e-32)
(0.5 -1.15184e-18 0)
(0.5 -3.16522e-17 -3.02137e-32)
(0.5 -8.17204e-17 1.81298e-32)
(0.5 -1.73913e-16 -2.29245e-32)
(0.5 3.74238e-17 0)
(0.5 8.66712e-17 -6.90269e-32)
(0.5 -3.77222e-17 0)
(0.5 9.45256e-18 7.39123e-34)
(0.5 -1.27242e-17 0)
(0.5 -6.42473e-17 1.54088e-33)
(0.5 -6.17666e-17 5.60292e-32)
(0.5 -3.27011e-17 -4.74127e-32)
(0.5 -1.37429e-16 0)
(0.5 -4.68061e-17 1.30136e-32)
(0.5 4.50566e-17 0)
(0.5 -2.23182e-18 1.04496e-32)
(0.5 1.6193e-17 -2.41314e-32)
(0.5 -1.55114e-17 7.53526e-32)
(0.5 1.24879e-17 5.07089e-32)
(0.5 6.48673e-17 2.77021e-32)
(0.5 1.30432e-16 -2.51353e-32)
(0.5 5.08726e-18 4.53238e-32)
(0.5 -5.18093e-18 1.3252e-32)
(0.5 -3.375e-18 2.66121e-32)
(0.5 2.00291e-17 -6.55236e-32)
(0.5 3.04215e-17 0)
(0.5 1.14619e-18 5.32354e-32)
(0.5 -8.4416e-17 6.60299e-32)
(0.5 -3.80739e-17 -2.22076e-32)
(0.5 -1.56412e-17 2.97742e-32)
(0.5 -2.9e-18 2.16767e-32)
(0.5 -2.89806e-17 0)
(0.5 5.04925e-17 0)
(0.5 5.27792e-17 2.96531e-32)
(0.5 -7.26528e-17 -2.4081e-32)
(0.5 -1.79989e-17 2.40669e-32)
(0.5 2.01466e-17 -1.27193e-32)
(0.5 -2.9747e-17 -4.8491e-32)
(0.5 -3.21725e-17 5.94602e-32)
(0.5 -7.03489e-19 0)
(0.5 -2.60363e-17 0)
(0.5 3.72948e-17 -1.80885e-33)
(0.5 3.95267e-17 2.22912e-35)
(0.5 -3.68554e-17 -1.8758e-33)
(0.5 2.02372e-17 0)
(0.5 -8.97646e-18 2.24739e-35)
(0.5 3.84566e-17 0)
(0.5 -2.03973e-17 -7.12534e-33)
(0.5 5.36155e-17 6.41562e-32)
(0.5 -7.64394e-20 -2.59091e-32)
(0.5 -9.36396e-17 2.53266e-32)
(0.5 -2.13294e-17 0)
(0.5 -5.0068e-17 -7.61894e-33)
(0.5 -7.88148e-17 -1.79309e-32)
(0.5 8.51452e-18 4.51983e-32)
(0.5 2.3772e-17 -1.3256e-32)
(0.5 1.97152e-17 1.18757e-32)
(0.5 -8.54445e-17 5.30466e-32)
(0.5 -1.78486e-17 -3.25393e-33)
(0.5 -3.2531e-17 9.31254e-33)
(0.5 -4.1098e-17 -1.38867e-32)
(0.5 5.15112e-17 1.28951e-32)
(0.5 -2.65344e-18 1.65157e-32)
(0.5 -1.55458e-17 5.20992e-32)
(0.5 -2.45713e-17 -1.8949e-32)
(0.5 -3.32144e-17 -4.41164e-32)
(0.5 -2.55389e-17 7.17446e-32)
(0.5 6.31544e-18 -8.74123e-32)
(0.5 -2.10794e-17 1.16229e-32)
(0.5 -3.58968e-17 1.43546e-32)
(0.5 2.42933e-17 5.78892e-32)
(0.5 -4.52616e-18 4.8425e-32)
(0.5 -4.08166e-17 -2.99316e-34)
(0.5 -7.07653e-17 0)
(0.5 6.73859e-17 6.93003e-32)
(0.5 5.41209e-17 -3.07517e-32)
(0.5 1.22605e-16 1.29281e-32)
(0.5 3.54445e-17 -1.47694e-32)
(0.5 -1.06857e-16 4.64518e-32)
(0.5 7.53769e-17 8.94803e-33)
(0.5 8.82282e-17 -6.65986e-32)
(0.5 5.00773e-17 0)
(0.5 -4.59646e-17 1.87987e-32)
(0.5 -3.46127e-17 -9.75156e-33)
(0.5 -7.61986e-18 0)
(0.5 4.82617e-18 -9.57144e-32)
(0.5 9.7278e-17 2.76521e-32)
(0.5 -7.54619e-17 -9.29544e-33)
(0.5 4.2047e-17 1.24055e-32)
(0.5 -2.96188e-17 2.1116e-32)
(0.5 1.8348e-18 0)
(0.5 7.92218e-17 6.42227e-32)
(0.5 -3.54683e-17 1.27189e-33)
(0.5 -1.20585e-17 -6.75059e-32)
(0.5 -1.69766e-17 -4.49109e-32)
(0.5 5.33772e-17 -7.56423e-33)
(0.5 5.00955e-18 2.95232e-32)
(0.5 4.85371e-17 1.20621e-32)
(0.5 -8.37147e-17 0)
(0.5 -4.20896e-17 0)
(0.5 2.7421e-17 -9.41298e-35)
(0.5 -1.28217e-17 -2.51256e-32)
(0.5 -5.94452e-17 1.24819e-32)
(0.5 -9.89116e-18 2.79731e-32)
(0.5 -8.14587e-17 0)
(0.5 2.49113e-17 9.4215e-34)
(0.5 1.9084e-18 -5.19346e-32)
(0.5 -5.68681e-17 2.15866e-32)
(0.5 -8.23416e-19 0)
(0.5 -1.47753e-17 0)
(0.5 -4.09802e-17 -3.3215e-32)
(0.5 -2.40533e-17 -1.2865e-32)
(0.5 -2.19048e-17 1.30146e-32)
(0.5 -2.41051e-17 -1.47832e-32)
(0.5 -2.03651e-17 -9.8962e-33)
(0.5 -1.03748e-17 0)
(0.5 -4.027e-17 0)
(0.5 1.78464e-17 3.66124e-32)
(0.5 -4.35509e-17 1.21062e-31)
(0.5 -2.47795e-17 -4.89259e-32)
(0.5 4.88629e-17 -3.19421e-32)
(0.5 1.07123e-17 -7.46007e-33)
(0.5 -2.11644e-17 2.58378e-32)
(0.5 2.5262e-17 -4.89673e-32)
(0.5 -3.47502e-17 -7.29893e-33)
(0.5 -1.31317e-16 7.50154e-33)
(0.5 -9.61686e-17 2.24073e-32)
(0.5 1.95389e-17 0)
(0.5 8.52016e-19 1.40361e-31)
(0.5 -7.52716e-17 1.01235e-32)
(0.5 -1.32957e-17 -4.76619e-32)
(0.5 3.65052e-17 0)
(0.5 -2.15434e-18 1.422e-32)
(0.5 7.74899e-17 0)
(0.5 1.5576e-17 2.72603e-32)
(0.5 -2.78848e-17 1.10678e-32)
(0.5 -4.41638e-17 2.8272e-32)
(0.5 4.10819e-17 0)
(0.5 2.09199e-18 0)
(0.5 3.88007e-17 0)
(0.5 -1.05183e-17 3.26945e-32)
(0.5 -6.48371e-17 5.964e-32)
(0.5 -6.08263e-17 -3.71383e-32)
(0.5 2.19518e-17 -3.16486e-32)
(0.5 -2.33373e-17 0)
(0.5 -9.42147e-18 1.9039e-32)
(0.5 -1.94537e-17 -2.95235e-32)
(0.5 7.69722e-17 0)
(0.5 9.82673e-18 0)
(0.5 3.54353e-17 5.8401e-33)
(0.5 -4.06597e-17 3.26064e-32)
(0.5 -7.30691e-17 0)
(0.5 -2.56207e-17 -1.87579e-32)
(0.5 -1.4503e-18 -3.02929e-32)
(0.5 -4.40719e-17 4.23513e-34)
(0.5 -1.76174e-17 -2.63449e-32)
(0.5 7.10846e-17 -2.67237e-32)
(0.5 -1.15346e-17 1.92782e-32)
(0.5 6.13799e-17 -3.64767e-33)
(0.5 3.85069e-17 -3.14688e-32)
(0.5 3.04652e-17 -2.2109e-32)
(0.5 -6.60604e-17 0)
(0.5 -1.04594e-16 -5.06042e-33)
(0.5 1.7798e-17 0)
(0.5 1.8517e-17 3.56834e-32)
(0.5 6.90255e-17 0)
(0.5 -9.27947e-17 -2.87235e-32)
(0.5 -1.58176e-16 -9.62801e-33)
(0.5 -7.23907e-19 6.74377e-32)
(0.5 -9.82178e-18 6.25427e-32)
(0.5 1.02986e-17 5.17216e-33)
(0.5 -4.62512e-17 -1.57456e-32)
(0.5 -2.53813e-17 0)
(0.5 -2.63849e-17 -1.66443e-32)
(0.5 -2.10354e-17 9.04716e-34)
(0.5 -7.3149e-18 0)
(0.5 9.6996e-17 7.60176e-32)
(0.5 1.62797e-17 -8.06025e-32)
(0.5 -5.17323e-17 -9.40512e-34)
(0.5 1.64806e-17 -1.23238e-33)
(0.5 7.03958e-17 7.79046e-33)
(0.5 -7.745e-17 0)
(0.5 -2.79352e-17 0)
(0.5 -7.85617e-18 5.86818e-32)
(0.5 1.04241e-17 2.37624e-32)
(0.5 1.82642e-17 0)
(0.5 -4.1364e-18 0)
(0.5 -5.08894e-17 -2.80352e-32)
(0.5 2.72677e-17 0)
(0.5 3.20316e-17 0)
(0.5 3.8923e-17 -1.83216e-32)
(0.5 -3.45958e-17 5.61272e-32)
(0.5 2.40522e-17 0)
(0.5 -6.21976e-17 0)
(0.5 -4.27438e-17 -1.37674e-32)
(0.5 3.96684e-17 9.44607e-35)
(0.5 2.10025e-17 -5.97921e-32)
(0.5 -5.67221e-17 5.77503e-33)
(0.5 -1.65493e-17 -7.82581e-33)
(0.5 -8.01208e-17 -7.90024e-33)
(0.5 -8.12662e-17 1.00766e-34)
(0.5 -6.74911e-17 -1.71904e-32)
(0.5 -7.80752e-17 5.64659e-32)
(0.5 -3.22418e-17 -1.10816e-33)
(0.5 2.60146e-17 -7.69842e-33)
(0.5 5.45228e-17 0)
(0.5 -6.68578e-17 -9.13841e-33)
(0.5 9.256e-17 -1.54803e-32)
(0.5 6.49657e-17 7.95672e-32)
(0.5 -7.24856e-18 -3.5873e-33)
(0.5 2.92817e-17 0)
(0.5 -6.36734e-17 0)
(0.5 1.30795e-17 1.79952e-34)
(0.5 7.53372e-18 -1.12762e-33)
(0.5 -1.0122e-17 4.11471e-32)
(0.5 6.28222e-17 1.99398e-32)
(0.5 -4.74379e-17 2.65805e-32)
(0.5 5.87333e-18 7.68964e-33)
(0.5 -6.86422e-17 3.47676e-34)
(0.5 -7.65291e-17 0)
(0.5 -3.79363e-17 1.4709e-32)
(0.5 1.63446e-18 0)
(0.5 -8.71635e-17 3.07861e-32)
(0.5 -1.18265e-16 6.09162e-32)
(0.5 -2.75745e-17 6.06314e-32)
(0.5 3.44859e-17 2.42788e-32)
(0.5 3.81045e-17 -4.32133e-32)
(0.5 -2.61273e-17 -5.16104e-32)
(0.5 -9.84677e-18 8.6688e-33)
(0.5 -6.8559e-17 -2.37209e-32)
(0.5 -6.27735e-17 -4.1253e-32)
(0.5 -3.07959e-18 -4.68488e-32)
(0.5 -5.44911e-17 0)
(0.5 2.98784e-18 -3.37736e-32)
(0.5 -5.24291e-17 0)
(0.5 -7.57703e-17 0)
(0.5 -1.38966e-16 0)
(0.5 -1.00993e-16 -1.73054e-32)
(0.5 -1.40113e-17 -7.75861e-33)
(0.5 1.14616e-19 -1.87855e-33)
(0.5 4.40719e-17 0)
(0.5 -2.15719e-17 4.51445e-32)
(0.5 3.7864e-18 -5.05913e-32)
(0.5 -5.30774e-17 0)
(0.5 -5.45335e-17 -1.43342e-32)
(0.5 2.63339e-17 -9.4523e-33)
(0.5 6.89184e-17 -3.65078e-32)
(0.5 3.07923e-17 -3.01555e-32)
(0.5 -1.38252e-17 1.7975e-32)
(0.5 -1.49912e-17 5.15783e-32)
(0.5 -3.5955e-17 1.14551e-32)
(0.5 -5.28747e-17 -2.33566e-32)
(0.5 8.52849e-18 2.29398e-32)
(0.5 -2.55297e-17 0)
(0.5 3.81531e-17 -2.20408e-32)
(0.5 -5.36223e-17 5.00743e-32)
(0.5 3.38023e-17 8.90002e-32)
(0.5 -1.65532e-16 0)
(0.5 8.22586e-17 0)
(0.5 -4.95826e-17 3.14611e-32)
(0.5 -1.70851e-17 0)
(0.5 3.08319e-17 4.44041e-32)
(0.5 7.56403e-17 -3.40291e-33)
(0.5 -1.13448e-16 0)
(0.5 7.97904e-17 3.36926e-32)
(0.5 8.39237e-17 -3.34388e-32)
(0.5 2.37113e-17 0)
(0.5 2.36769e-17 5.9058e-32)
(0.5 -8.77784e-17 1.3536e-32)
(0.5 6.45533e-17 1.12703e-32)
(0.5 -2.82531e-17 -2.97683e-32)
(0.5 1.96114e-17 4.9255e-32)
(0.5 4.00884e-17 0)
(0.5 -1.02417e-19 3.37296e-32)
(0.5 1.56949e-17 6.28127e-32)
(0.5 1.0288e-16 -2.15904e-32)
(0.5 -3.05429e-17 1.31867e-34)
(0.5 -8.13669e-17 2.55894e-32)
(0.5 4.1523e-17 2.44861e-32)
(0.5 4.87137e-17 0)
(0.5 -5.08308e-17 -2.8469e-32)
(0.5 -1.43097e-17 7.12703e-32)
(0.5 -3.95385e-17 -2.92393e-32)
(0.5 1.0254e-18 1.39404e-32)
(0.5 -2.32388e-17 1.45561e-32)
(0.5 -1.15237e-17 -3.01586e-33)
(0.5 -9.39642e-17 9.7317e-34)
(0.5 -1.77629e-18 -9.55757e-32)
(0.5 -7.32371e-18 0)
(0.5 1.10988e-17 1.82316e-32)
(0.5 -4.83963e-17 5.52122e-32)
(0.5 -6.19329e-18 1.68656e-32)
(0.5 6.71882e-17 0)
(0.5 5.34315e-18 -6.00588e-32)
(0.5 -3.06674e-17 0)
(0.5 2.2547e-17 -2.91134e-32)
(0.5 5.05258e-18 -4.92295e-33)
(0.5 9.77746e-18 -5.07891e-32)
(0.5 -1.24479e-17 0)
(0.5 5.71561e-17 0)
(0.5 2.09115e-17 1.01348e-31)
(0.5 -1.18375e-16 2.76441e-32)
(0.5 -5.54276e-17 -2.66095e-32)
(0.5 -9.37274e-17 -2.56442e-32)
(0.5 -7.17649e-18 0)
(0.5 2.41621e-17 3.64523e-32)
(0.5 -9.64293e-18 -2.24713e-33)
(0.5 -8.18657e-17 -5.31544e-32)
(0.5 -6.53236e-17 5.54666e-32)
(0.5 -7.84499e-17 -5.92857e-32)
(0.5 6.94885e-17 2.83875e-32)
(0.5 -5.42261e-17 -5.13079e-32)
(0.5 -2.53166e-17 7.27727e-32)
(0.5 -4.86324e-17 5.02484e-34)
(0.5 -8.56109e-17 5.40883e-32)
(0.5 1.55981e-17 5.0199e-32)
(0.5 -4.39085e-17 0)
(0.5 2.33914e-17 -1.57533e-32)
(0.5 -6.76158e-17 -3.65388e-32)
(0.5 -6.95952e-17 0)
(0.5 -1.27767e-17 3.88653e-34)
(0.5 9.15935e-17 0)
(0.5 -2.7695e-17 -2.81355e-32)
(0.5 7.99986e-18 -3.38845e-33)
(0.5 7.66246e-17 -1.22394e-34)
(0.5 -3.7723e-18 7.93826e-33)