/*--------------------------------*- C++ -*----------------------------------*\
  =========                 |
  \\      /  F ield         | OpenFOAM: The Open Source CFD Toolbox
   \\    /   O peration     | Website:  https://openfoam.org
    \\  /    A nd           | Version:  7
     \\/     M anipulation  |
\*---------------------------------------------------------------------------*/
FoamFile
{
    version     2.0;
    format      ascii;
    class       volScalarField;
    location    "9";
    object      p;
}
// * * * * * * * * * * * * * * * * * * * * * * * * * * * * * * * * * * * * * //

dimensions      [0 2 -2 0 0 0 0];

internalField   nonuniform List<scalar> 
13182
(
-7.86876
-1.48798
-5.80985
-8.26099
-3.09768
-7.51011
-7.5606
-8.11942
-8.38481
-3.87921
-3.8813
-4.62828
-7.61561
-7.52622
-7.40416
-7.73844
-8.33489
-8.48202
-7.33112
-7.39125
-7.36415
-8.02187
-7.71628
-6.71623
-6.71915
-6.77332
-8.05468
-6.66494
-4.7068
-8.50563
-8.50318
-8.33759
-7.71459
-3.82499
-3.50905
-7.39799
-8.36818
-5.06923
-5.44577
-8.07207
-1.51644
-1.72625
-5.83544
-0.775806
-6.52941
-2.77136
-8.24847
-5.3853
-5.15997
-8.20482
-6.33299
-6.40044
-3.70847
-8.11601
-7.54571
-6.79199
-4.85841
-8.15779
-7.56576
-8.42054
-8.37314
-8.30698
-8.07819
-6.96314
-6.26276
-6.22309
-7.63743
-6.59707
-3.25111
-7.04907
-0.914856
-8.03123
-8.10906
-6.63958
-1.30861
-8.34477
-8.34272
-8.2104
-7.86929
-7.85422
-8.49134
-3.70504
-7.32024
-7.38104
-1.26659
-1.35013
-1.63378
-4.08058
-6.78842
-6.91505
-4.46355
-8.35989
-4.0827
-4.05238
-7.89569
-8.19651
-4.47422
-7.79192
-8.17374
-7.36752
-7.27556
-4.85857
-6.12535
-7.5225
-7.9208
-6.40377
-1.60891
-1.56285
-8.33875
-5.35884
-8.16619
-2.27024
-2.10157
-7.54016
-6.17535
-4.04101
-8.15638
-1.27665
-7.01262
-6.9297
-6.85989
-3.19669
-8.3421
-7.41092
-5.71159
-5.52387
-7.40799
-8.4263
-7.45033
-4.98476
-0.486369
-0.439449
-8.12829
-2.92288
-7.54214
-8.37647
-8.31904
-6.99692
-7.45311
-7.8605
-4.27763
-1.33468
-1.54596
-6.15494
-6.06651
-8.15499
-7.80526
-2.88349
-8.43549
-5.04849
-0.786777
-6.28979
-6.32046
-4.9856
-6.71202
-6.65987
-1.15413
-2.46333
-1.88556
-6.5918
-6.66483
-4.98423
-4.54106
-8.09662
-7.92732
-5.99501
-8.38275
-7.04627
-6.0179
-2.8101
-3.53823
-7.64699
-7.6332
-0.578501
-5.22263
-7.98741
-2.34666
-4.4075
-8.05757
-7.42479
-6.66545
-5.02928
-8.37207
-7.11661
-3.37907
-5.16178
-5.40428
-7.95273
-6.52903
-6.37716
-4.56346
-8.36521
-5.3076
-1.31688
-8.34925
-5.82953
-4.89557
-7.28931
-6.67521
-6.86632
-7.90561
-7.91319
-0.961077
-8.19902
-4.09015
-1.18475
-3.37396
-0.369405
-8.39249
-3.86696
-5.87032
-0.323826
-8.11997
-7.54524
-4.45424
-7.10607
-6.36912
-8.38974
-5.84732
-0.806987
-6.48549
-6.66365
-0.670257
-7.48208
-3.27675
-8.36856
-8.23234
-8.48343
-8.51685
-8.01463
-8.18952
-7.84868
-7.8172
-7.55755
-8.0084
-8.07412
-5.78952
-8.05461
-8.04488
-7.77941
-1.01701
-1.08289
-8.12321
-7.71295
-7.75009
-7.48068
-7.00695
-6.98292
-8.27635
-6.97831
-7.71106
-3.92475
-5.75473
-5.82375
-1.22582
-8.3463
-4.37355
-0.778825
-0.698482
-2.33571
-5.66917
-8.39255
-8.32538
-8.57199
-6.97085
-5.96114
-4.20624
-8.15068
-6.91841
-8.25571
-8.17872
-8.16369
-8.15625
-4.91964
-8.3475
-4.90121
-8.08868
-8.05369
-7.08744
-1.1913
-8.49391
-5.37886
-5.31661
-7.52298
-7.76932
-5.09173
-5.17509
-8.49441
-3.27163
-8.21379
-8.20271
-3.89401
-2.93115
-6.5173
-8.28362
-8.29664
-8.35969
-8.35789
-8.43578
-8.4261
-5.90756
-6.90275
-7.89079
-7.8685
-3.44069
-2.58248
-7.0358
-7.21208
-8.26807
-5.91684
-7.74487
-8.43073
-5.37249
-8.07748
-8.36825
-8.3563
-8.36081
-7.57513
-8.50763
-4.42493
-4.2594
-2.90053
-8.09842
-8.11719
-7.55602
-8.30088
-6.26522
-7.34451
-6.2575
-5.15802
-7.31285
-7.34609
-4.4469
-4.4791
-4.60928
-6.88292
-6.95123
-7.2982
-8.42274
-3.66062
-0.999054
-8.06683
-8.54299
-3.27431
-3.38716
-8.19156
-6.88762
-6.96132
-7.52931
-6.61968
-6.71212
-8.36682
-2.7815
-8.0486
-8.0402
-8.25002
-7.8183
-7.84365
-8.33416
-7.86728
-4.14221
-8.38851
-2.3684
-8.03029
-2.46666
-2.88387
-8.34402
-7.90994
-7.93686
-5.63614
-8.36936
-7.93292
-4.30453
-5.58732
-7.75407
-8.35213
-5.3584
-3.64455
-0.96193
-7.39534
-6.95988
-4.25253
-8.35597
-7.52522
-6.2752
-6.34798
-5.81608
-8.03197
-3.14209
-7.38663
-6.65264
-8.47271
-8.47702
-7.33706
-7.29674
-8.15559
-8.36773
-4.01912
-5.69477
-8.06728
-4.15945
-3.91915
-7.11154
-8.37221
-8.10078
-4.8585
-6.69686
-8.39526
-8.32556
-6.07978
-7.3842
-7.41204
-4.24066
-6.19126
-8.54415
-2.8573
-8.27185
-3.54449
-5.70945
-7.7372
-6.00116
-7.90427
-8.36403
-8.3724
-8.53748
-3.66005
-8.11826
-6.33609
-7.86241
-7.87757
-1.04799
-6.70225
-7.0378
-8.20852
-7.90437
-3.2182
-7.70504
-5.46221
-3.78799
-7.62307
-1.90107
-5.66138
-5.74757
-7.21198
-6.29972
-8.28952
-2.05538
-8.35681
-4.14277
-8.49044
-8.16461
-4.83402
-4.76098
-8.28874
-2.23129
-6.88508
-8.56808
-8.35931
-8.34731
-8.14294
-8.39198
-7.90069
-2.47857
-8.08757
-8.20599
-8.50984
-5.62899
-5.56845
-8.33338
-7.88334
-7.8858
-2.66783
-8.46826
-6.61059
-2.67448
-5.57412
-8.44006
-4.40776
-8.44256
-8.31783
-8.29832
-8.33151
-6.02637
-8.13378
-1.27897
-4.33174
-7.24766
-4.60229
-3.07456
-1.57276
-8.2045
-6.23289
-8.31446
-2.35666
-8.57424
-5.27307
-6.70636
-1.35571
-7.67521
-3.82942
-8.26217
-8.07103
-8.33405
-2.73669
-4.29119
-7.47441
-8.17089
-8.16036
-5.68925
-5.03714
-5.15861
-5.28576
-7.6926
-6.91872
-6.50057
-7.69297
-5.49963
-8.21544
-7.43633
-2.17818
-7.48453
-8.00213
-8.01936
-5.14407
-5.92774
-6.03979
-8.18957
-6.67225
-8.46915
-6.64462
-6.67303
-8.12476
-7.7155
-7.7858
-0.756476
-7.48899
-7.45289
-4.68232
-6.71979
-6.46897
-7.2675
-4.29198
-8.49332
-5.10884
-7.7003
-6.22523
-6.10893
-7.98772
-4.84034
-8.38368
-8.46373
-7.83569
-7.85695
-7.96938
-7.9326
-8.28462
-8.52998
-8.0969
-6.91311
-8.12537
-3.07488
-8.40858
-7.92292
-6.55974
-8.16417
-7.95226
-6.58827
-2.14803
-5.03985
-7.33728
-7.2007
-4.1844
-4.07212
-6.70085
-8.34936
-8.04345
-7.88061
-7.58684
-8.10103
-5.38925
-7.21539
-3.68301
-8.29521
-7.80443
-7.71924
-7.29082
-8.34249
-8.05235
-8.07839
-5.49895
-5.51015
-1.60335
-7.9116
-7.25946
-7.72667
-4.45725
-5.8945
-8.37418
-8.56225
-8.54212
-8.1886
-7.92692
-7.9516
-7.92467
-3.7866
-6.47271
-3.76141
-6.22295
-8.36397
-8.33168
-8.46528
-4.14624
-8.09957
-3.42562
-5.59455
-2.01397
-4.69527
-6.80593
-3.71288
-6.49925
-8.27351
-4.54034
-7.86744
-8.34056
-3.49109
-3.81115
-8.49618
-7.58349
-3.58454
-8.15087
-8.4985
-8.5031
-7.03216
-6.83552
-3.47207
-4.44045
-8.14537
-7.91172
-8.18096
-7.56757
-8.12602
-4.56122
-6.69128
-7.93304
-8.34359
-3.09747
-4.31847
-8.18991
-5.40916
-3.25376
-8.26233
-8.24902
-4.9815
-8.37361
-8.26165
-4.24281
-8.50197
-5.68878
-3.70785
-4.32323
-8.37722
-5.35982
-3.86699
-7.26787
-7.40419
-7.34772
-7.83284
-7.84663
-8.38971
-6.25586
-8.57855
-7.7478
-8.39947
-7.27256
-8.19087
-2.70773
-8.49206
-7.94576
-3.88577
-8.21141
-6.29968
-8.27878
-8.27616
-4.62149
-8.37116
-4.42953
-4.41376
-4.09529
-4.08997
-8.29683
-7.58458
-7.62414
-2.08207
-4.6161
-8.37307
-8.37514
-7.85248
-7.42248
-6.71562
-3.4727
-8.33591
-8.36459
-8.10143
-7.90144
-2.72372
-6.37331
-8.16825
-8.11822
-1.78728
-6.61167
-8.05954
-8.22956
-7.95992
-7.92847
-4.04676
-4.3452
-8.23696
-8.25409
-8.1004
-0.988805
-2.30309
-4.75851
-8.23932
-7.34299
-8.50612
-8.55742
-2.71891
-2.20531
-5.42907
-8.5791
-7.5195
-7.20084
-6.8568
-7.8519
-7.33507
-5.28312
-7.98393
-8.34912
-7.22401
-6.31235
-6.37169
-8.25753
-6.46909
-6.4757
-8.53441
-4.06236
-6.87173
-7.17059
-7.53678
-6.5848
-8.32023
-4.17504
-7.26733
-7.88233
-2.81866
-8.37106
-6.47818
-7.27472
-8.3368
-3.24397
-8.07421
-8.30816
-2.83873
-5.52951
-8.3256
-8.42803
-6.89262
-7.43221
-4.85385
-8.19581
-1.36635
-1.13665
-8.23215
-7.42815
-8.34258
-8.39217
-4.05279
-6.63456
-8.17478
-8.31333
-6.61845
-5.08295
-8.41039
-6.69653
-0.860628
-0.727686
-8.44842
-7.34715
-7.38562
-5.52384
-6.03229
-2.40626
-8.02596
-3.99796
-6.85159
-3.55391
-8.04638
-7.84074
-8.27873
-4.11016
-4.90712
-6.39013
-4.42709
-8.09363
-2.30875
-8.27846
-6.43345
-8.34851
-7.89772
-7.1427
-6.76115
-1.045
-3.97525
-4.2134
-4.958
-2.2467
-5.05266
-8.27766
-8.17294
-6.53963
-6.56088
-8.5173
-5.852
-7.12619
-7.07383
-8.31151
-3.76334
-3.54036
-7.52787
-7.28483
-8.14632
-7.46464
-8.0935
-8.06364
-6.91234
-7.16872
-2.64471
-2.69939
-4.99395
-6.71425
-8.44016
-4.78779
-7.11935
-8.25456
-7.61722
-7.02631
-7.03882
-4.65656
-7.11844
-5.96843
-8.27775
-7.97791
-7.3857
-8.39997
-7.52109
-5.80978
-0.446445
-8.55669
-8.19896
-1.45615
-7.40084
-3.19493
-8.49484
-2.35772
-6.11136
-8.17774
-1.59568
-7.21394
-7.87677
-8.31637
-8.34947
-8.34573
-6.53885
-8.40831
-6.23681
-8.09213
-8.05098
-1.25947
-8.30868
-6.0163
-8.06264
-8.29694
-2.81976
-4.75457
-6.88538
-8.03612
-8.39338
-8.30671
-6.76954
-6.73022
-7.78743
-0.920482
-7.9999
-8.21357
-5.08008
-8.23926
-4.58976
-6.51992
-0.559059
-7.97655
-3.37633
-7.43453
-4.8826
-8.50155
-8.15741
-7.89497
-4.94822
-5.12113
-7.81271
-2.21498
-3.63984
-3.1141
-3.05835
-5.86788
-7.74337
-5.6146
-5.18902
-5.31877
-4.07972
-7.96395
-7.95714
-4.93678
-7.87958
-8.38044
-0.951569
-8.35382
-7.51923
-7.40506
-7.61805
-8.07895
-8.1785
-7.92851
-7.93641
-5.02529
-8.02898
-7.66613
-7.91284
-7.22798
-7.1565
-7.1985
-3.60575
-6.51595
-6.55132
-8.17826
-3.54142
-5.594
-6.65967
-4.4235
-4.2595
-6.43154
-2.73373
-7.98231
-5.4091
-7.29506
-7.26177
-5.28851
-7.58471
-3.46516
-6.43824
-8.36507
-3.45053
-8.44384
-4.57796
-4.32012
-6.30444
-8.52656
-6.44424
-8.29248
-8.26888
-7.44849
-6.47607
-8.0139
-8.27847
-7.34511
-0.96249
-3.50399
-7.28111
-8.11518
-7.81261
-7.75638
-7.56093
-3.1359
-8.20764
-6.66997
-8.17846
-4.78818
-8.29489
-6.49893
-7.13038
-7.2069
-7.26429
-7.42656
-7.3798
-7.3482
-7.57775
-2.49238
-7.48337
-0.643235
-8.24224
-8.23481
-8.22481
-6.82403
-7.53362
-6.68599
-8.46105
-7.90962
-7.83977
-7.42055
-2.18341
-8.25195
-3.52641
-8.1112
-8.51478
-7.04423
-7.05318
-5.17625
-0.56059
-7.19338
-3.86183
-8.24714
-8.32545
-8.34318
-8.36083
-6.86185
-6.87652
-8.50502
-8.37085
-7.8732
-8.58135
-8.15082
-8.40457
-5.68591
-5.89303
-0.759847
-5.29378
-2.20599
-7.95812
-2.4835
-8.2954
-4.97191
-8.38418
-8.4042
-8.23733
-7.98561
-3.02243
-7.11646
-6.6136
-8.15313
-5.91005
-8.19447
-5.03999
-5.32823
-6.52391
-1.36835
-8.26571
-2.86287
-2.84483
-6.95247
-8.39549
-8.2351
-4.45693
-6.31669
-7.58708
-6.11469
-6.99806
-3.36592
-1.9598
-8.39401
-6.19264
-6.84069
-5.17714
-4.96495
-4.89173
-7.04621
-8.54465
-8.45179
-7.01614
-3.51137
-4.72638
-7.90764
-8.39705
-8.39506
-2.4257
-2.49126
-8.32936
-8.31588
-8.39922
-6.0074
-6.3483
-7.03437
-2.36918
-4.71794
-8.07838
-4.70657
-4.71688
-7.98846
-7.26038
-6.5759
-6.58125
-7.87077
-7.30464
-7.67722
-1.99049
-4.27837
-5.43573
-5.36201
-8.1108
-5.12529
-8.33465
-6.58035
-6.37602
-7.57364
-1.19621
-7.05241
-3.65511
-7.40169
-7.90553
-0.793727
-0.672998
-8.20454
-2.20346
-8.3812
-1.34311
-7.05434
-7.76261
-8.41473
-8.22285
-5.53671
-7.58035
-5.12924
-7.85379
-7.63272
-7.68602
-5.38898
-5.26776
-8.39326
-1.77483
-3.71049
-8.39918
-8.50963
-8.44841
-8.09033
-0.811418
-5.35332
-5.41519
-2.36435
-7.85502
-6.61827
-7.18595
-7.49927
-3.06623
-7.43361
-4.61236
-4.82415
-8.50199
-4.37061
-7.85347
-7.04731
-4.51002
-4.07507
-8.20057
-3.27179
-2.28619
-8.26481
-6.64572
-8.1175
-7.82795
-1.10721
-6.25554
-5.27504
-8.07532
-8.01045
-8.05609
-7.86447
-8.26411
-4.96223
-7.94082
-4.16316
-6.51545
-7.90059
-7.15969
-4.97881
-0.483367
-7.08047
-8.21802
-8.58936
-6.93091
-7.0114
-2.25752
-7.9676
-6.93914
-5.04095
-6.38983
-3.92224
-7.55147
-7.95275
-7.95624
-7.14349
-6.43344
-8.22602
-7.96856
-4.85192
-4.87051
-3.48057
-2.32376
-6.65221
-7.9208
-7.62509
-5.34578
-6.86691
-7.91852
-4.68637
-8.22936
-4.14719
-1.40543
-4.70761
-8.1964
-4.28116
-7.54706
-6.80659
-5.95219
-7.44712
-6.82944
-6.78694
-6.22779
-6.03847
-6.90716
-1.17936
-8.19717
-8.27243
-3.50913
-8.35623
-3.35287
-4.19777
-5.58902
-8.56278
-8.03794
-2.39142
-1.99296
-6.55707
-7.78937
-7.9038
-7.38111
-5.39202
-2.93282
-8.45562
-8.44848
-0.657648
-6.68371
-2.76276
-6.85677
-8.15261
-8.1275
-7.96801
-7.64839
-8.1376
-5.40607
-7.71843
-7.24685
-7.25052
-3.88391
-6.3546
-7.2915
-8.25418
-5.3906
-6.36707
-6.38504
-5.24253
-5.37492
-5.33673
-4.3306
-8.14701
-8.29337
-7.18851
-6.96261
-6.5581
-6.51444
-5.34268
-6.13874
-8.31816
-8.1816
-7.62587
-7.17042
-7.24035
-5.30395
-8.43026
-8.4245
-8.2978
-5.26748
-7.0809
-7.13633
-7.12189
-7.19751
-2.32367
-8.07403
-8.31619
-1.74408
-1.50104
-7.36293
-8.32957
-8.31463
-5.21609
-8.20516
-7.35724
-3.00637
-7.28743
-7.41164
-8.39665
-8.39135
-8.3458
-8.25635
-5.05815
-8.19699
-4.76769
-4.8217
-7.64522
-6.32916
-8.14978
-5.46275
-7.26921
-7.08443
-2.13995
-2.81904
-5.09457
-1.53956
-6.95215
-1.3514
-7.17711
-8.18891
-2.63448
-5.99816
-5.97485
-8.36676
-5.69796
-7.82987
-8.27601
-0.971533
-8.17427
-8.39991
-8.48952
-7.76921
-7.74724
-5.84531
-8.0621
-8.5335
-5.71689
-8.31235
-8.30912
-4.77644
-4.8926
-8.2584
-5.50325
-8.43557
-8.39438
-8.33823
-8.35168
-2.35838
-8.39873
-8.17407
-1.5395
-2.5697
-6.30478
-8.05746
-6.37396
-7.5846
-7.2999
-6.60227
-7.6498
-7.43432
-8.20722
-8.1848
-7.63619
-8.22301
-8.56221
-8.44264
-4.98379
-8.37102
-8.32881
-8.32945
-5.91296
-6.02401
-8.32649
-6.91932
-8.39837
-8.26116
-7.41015
-8.56558
-3.68562
-5.78884
-8.07423
-7.37181
-7.39742
-4.56193
-6.56053
-7.14488
-8.15326
-3.91739
-7.49245
-8.34713
-8.45386
-8.45733
-7.99984
-8.50052
-8.30631
-4.51977
-8.30185
-7.91863
-8.15425
-6.55689
-8.48949
-5.73861
-4.63497
-8.30731
-8.30029
-7.45637
-1.12062
-7.37719
-5.51511
-6.38937
-6.85163
-6.88207
-6.87848
-5.21366
-7.09905
-8.48928
-8.38829
-6.35164
-7.6641
-5.91079
-5.69775
-8.12889
-6.74502
-6.66402
-6.36548
-5.50485
-7.91978
-7.19868
-8.03917
-8.52872
-6.37004
-8.39598
-8.36097
-8.35965
-1.85168
-6.53314
-6.49573
-1.12417
-5.53877
-4.45552
-7.8245
-8.12728
-8.18966
-6.88441
-3.42971
-3.53147
-8.15795
-6.76547
-8.4093
-3.45767
-8.44033
-8.43975
-8.22493
-7.57227
-5.56873
-1.46942
-3.03756
-6.09396
-6.34937
-8.0424
-2.14483
-2.21493
-2.86724
-8.27774
-8.28732
-7.98183
-7.06808
-5.73798
-6.30011
-5.4715
-4.76938
-6.1751
-3.76881
-7.39805
-8.14629
-7.60903
-7.58737
-8.39476
-3.87705
-5.8521
-7.92333
-4.93375
-4.76909
-5.30294
-2.81775
-7.50163
-7.55468
-8.15149
-5.06257
-6.30014
-8.3645
-8.36566
-5.94581
-5.98664
-2.5791
-8.03317
-5.44113
-1.33263
-7.47411
-4.85805
-2.91587
-1.24025
-7.74121
-7.74421
-3.43761
-8.38796
-1.1615
-8.46305
-8.0706
-4.56944
-8.08681
-8.06474
-6.85281
-8.23292
-3.73807
-4.49826
-6.93787
-6.58516
-8.46094
-8.36185
-7.05774
-2.49491
-3.0098
-8.37473
-8.37873
-8.37054
-8.58852
-4.70641
-7.92168
-4.50693
-4.47089
-7.97021
-8.29522
-8.22358
-8.41521
-3.3041
-3.85193
-1.47419
-6.41233
-6.39026
-7.15245
-7.44062
-7.01487
-8.56185
-2.93788
-8.15247
-6.96062
-8.55886
-2.43572
-7.99843
-5.42356
-3.92165
-4.31269
-2.05507
-7.26732
-7.44445
-2.55734
-2.83078
-1.58428
-2.37019
-8.03259
-4.85239
-3.8902
-4.07754
-8.09255
-2.27518
-7.45535
-8.45407
-0.790552
-8.14459
-6.07172
-2.72758
-6.68707
-5.09988
-7.17496
-6.79641
-2.96312
-8.25142
-8.03729
-8.11628
-7.922
-8.37919
-8.58608
-2.24978
-6.99452
-8.117
-4.97031
-4.43223
-8.2295
-8.17373
-7.60793
-5.98021
-8.01874
-8.31564
-8.31142
-8.45171
-8.0971
-3.0068
-3.21671
-6.84574
-8.06277
-8.30652
-8.31321
-8.30026
-8.27607
-6.95216
-8.33783
-7.41386
-7.45822
-7.5322
-7.85762
-2.32826
-8.53521
-8.0806
-2.8063
-8.2789
-4.85957
-8.17808
-3.67369
-8.33536
-8.45641
-8.09536
-4.49215
-4.24854
-8.32406
-8.49774
-8.07776
-8.17835
-1.51662
-4.66726
-7.67699
-7.48377
-7.15756
-7.07997
-8.15097
-8.54376
-7.42102
-8.31203
-7.14936
-8.43977
-7.52653
-7.51991
-8.14225
-6.66804
-7.88375
-6.499
-7.98202
-1.55822
-4.15262
-8.12999
-3.17789
-6.17437
-5.62054
-1.66454
-7.96854
-6.91383
-8.36698
-8.03111
-5.15941
-0.568948
-7.75171
-8.12841
-4.99443
-3.02778
-4.38097
-4.30418
-4.57356
-6.2711
-8.04858
-8.2825
-6.82175
-5.23348
-7.81633
-8.33377
-8.05554
-7.32011
-8.04905
-7.06887
-0.751188
-8.03769
-5.99725
-5.8524
-3.62944
-5.15204
-8.58204
-8.58489
-7.39584
-1.19372
-5.18251
-8.27478
-2.59501
-8.13906
-8.30191
-3.46052
-3.65622
-1.50347
-4.57206
-8.49564
-8.28236
-7.2355
-8.44526
-7.8889
-6.83882
-8.51506
-8.17367
-7.45698
-8.28448
-4.25285
-8.32869
-3.09119
-3.17284
-4.72012
-7.07129
-8.35731
-7.87238
-7.69337
-2.06851
-8.4552
-8.33319
-6.52912
-6.59413
-5.99932
-5.77471
-7.53587
-7.58402
-7.11284
-8.37583
-3.07952
-7.96135
-1.24132
-6.78249
-7.84455
-2.64907
-8.29051
-8.26896
-8.13122
-8.38921
-8.39315
-8.36543
-7.72244
-8.58991
-7.41259
-6.62629
-8.47228
-7.2643
-8.13063
-4.19459
-4.67699
-5.22481
-7.38591
-8.56104
-8.5641
-4.89073
-6.72083
-8.23502
-7.44644
-8.01677
-2.16348
-3.63827
-3.96303
-3.93115
-8.56102
-7.17239
-7.36333
-6.06199
-8.01222
-8.13125
-8.35031
-8.38201
-2.50644
-2.39634
-4.88623
-4.40781
-8.35126
-8.16671
-7.12962
-1.06203
-8.24084
-3.78936
-6.01557
-0.51381
-5.79886
-5.6203
-7.39408
-2.91325
-7.69353
-7.66514
-7.67727
-7.33527
-6.81481
-8.15724
-8.31843
-4.5768
-8.43576
-8.51329
-3.97403
-8.08965
-4.4002
-7.23829
-7.19505
-8.11756
-8.13801
-6.13269
-7.75333
-7.83867
-7.8736
-3.96213
-5.53066
-5.67051
-7.98987
-1.93289
-7.80766
-4.98731
-5.28304
-7.819
-7.30662
-8.27636
-0.942781
-8.07308
-8.02704
-6.78476
-2.36783
-8.37406
-8.13284
-6.84186
-8.49605
-6.8391
-8.17001
-6.52061
-8.15215
-4.49886
-3.97913
-4.06004
-8.3108
-4.84058
-7.72362
-7.13185
-7.71896
-5.02225
-5.93001
-7.04827
-8.36783
-8.36768
-7.93899
-7.23796
-7.65691
-3.07845
-8.43428
-6.41044
-6.39453
-4.14224
-8.209
-5.24141
-3.20514
-7.03133
-8.2748
-8.28062
-7.82559
-8.32974
-8.5264
-6.82933
-3.39723
-7.53476
-1.24145
-3.64643
-6.79845
-6.79183
-0.812179
-8.50542
-3.82023
-1.62481
-8.28306
-4.5842
-8.07064
-2.73571
-5.94857
-8.23879
-8.36703
-8.53934
-8.33299
-7.06403
-8.29277
-8.15688
-8.12403
-8.36196
-8.39216
-5.07928
-6.83572
-3.32195
-7.55449
-4.64477
-3.30673
-5.48544
-4.54235
-8.32589
-6.68882
-6.77511
-2.70635
-7.16009
-8.42035
-6.89005
-0.555057
-0.684809
-8.41802
-7.31196
-0.871073
-5.49357
-8.24646
-8.06322
-3.46962
-7.51908
-8.33667
-8.36912
-3.14908
-3.52672
-1.37683
-7.19658
-7.20063
-8.20031
-6.76625
-6.76957
-0.69804
-2.46236
-5.76202
-0.403098
-7.12608
-8.39304
-2.41841
-2.95154
-1.24384
-8.39733
-8.30574
-8.31955
-8.44553
-8.43759
-7.93579
-4.43478
-4.50327
-8.29205
-8.29209
-8.2185
-8.29612
-8.56941
-8.06397
-8.0298
-6.75006
-2.45869
-6.09128
-6.35349
-4.05984
-7.14777
-8.27229
-8.33042
-5.05543
-6.88716
-8.35321
-8.50926
-8.58852
-2.54151
-5.28416
-7.41279
-4.08031
-8.23977
-8.34078
-6.69265
-6.70048
-5.34724
-7.16094
-7.71625
-5.11487
-8.28143
-8.02229
-7.88942
-7.8447
-7.79689
-1.40817
-4.89711
-5.09981
-7.81912
-8.38712
-6.75413
-2.08763
-1.63073
-1.79059
-4.76428
-3.72244
-8.22597
-8.31764
-7.65328
-1.98409
-7.62016
-8.48979
-8.35567
-7.15925
-8.3961
-8.55621
-8.56416
-7.27365
-8.14888
-7.8883
-2.25639
-8.21608
-8.10712
-4.87754
-5.63564
-7.14611
-7.61891
-7.60278
-8.14599
-6.78682
-8.11371
-2.76784
-5.44053
-5.52428
-6.36475
-6.39105
-5.94517
-5.79985
-4.9238
-6.63223
-2.35491
-2.61012
-8.49617
-8.44424
-8.45518
-8.43801
-0.900577
-0.803606
-7.86045
-7.63629
-6.40099
-4.22039
-3.61191
-7.82175
-6.58066
-7.40585
-7.99728
-0.416418
-3.04832
-6.36965
-7.45407
-7.47206
-6.47766
-8.33183
-8.423
-0.426477
-0.468764
-8.33987
-2.9134
-8.06425
-5.14776
-3.99019
-6.78354
-8.02272
-7.55132
-4.52638
-4.58351
-8.34177
-7.40805
-7.95024
-2.30547
-8.43413
-4.62634
-4.7011
-8.09756
-6.30425
-7.93301
-7.49886
-7.47989
-3.60191
-5.13818
-2.37045
-1.11786
-1.12627
-1.05883
-8.36219
-8.36256
-7.27107
-7.4392
-8.11321
-8.22389
-8.24016
-6.98959
-6.05444
-1.10563
-8.39276
-8.29431
-6.48562
-6.9986
-6.98761
-4.22088
-7.13666
-7.83652
-5.42387
-7.94662
-8.24035
-8.42435
-8.15374
-0.369991
-6.03882
-8.58898
-7.57261
-7.50823
-7.03911
-7.6737
-7.68458
-5.16243
-3.33302
-7.65455
-5.98946
-7.32967
-7.40224
-8.02225
-6.41175
-7.11821
-6.43164
-6.32142
-4.94509
-8.31121
-7.91527
-8.3484
-8.42701
-2.32665
-7.62687
-4.36045
-4.65569
-7.68187
-6.17517
-8.01365
-7.09839
-4.64513
-5.39049
-0.904151
-5.13675
-3.80294
-8.38687
-8.04855
-8.21672
-0.702252
-0.6252
-8.36872
-7.11396
-3.73817
-7.42528
-7.67022
-7.55559
-8.52906
-8.10429
-5.39399
-5.75993
-5.87386
-8.57974
-8.45459
-8.14551
-8.15137
-7.8432
-7.78126
-4.89132
-6.10397
-4.94983
-7.0842
-7.37141
-7.05789
-8.39421
-8.24604
-8.36618
-8.35701
-8.19638
-8.38077
-2.25103
-6.26952
-6.51808
-7.96878
-7.95295
-8.0381
-2.40799
-4.59213
-6.2784
-6.40432
-1.51724
-5.94165
-3.71219
-7.23327
-4.79651
-4.84653
-4.46655
-8.22853
-8.3557
-8.43856
-8.2532
-7.86743
-5.40824
-5.30124
-7.53898
-7.62773
-4.39794
-2.39887
-2.59934
-7.74328
-5.697
-5.69843
-2.48986
-2.69069
-8.2112
-3.24547
-3.353
-4.07983
-8.15503
-7.75748
-1.07414
-4.02677
-7.64179
-7.44456
-5.09944
-5.68755
-7.06902
-8.34164
-1.84253
-5.69039
-6.80365
-1.42136
-7.7715
-7.87099
-6.84693
-7.34722
-8.42114
-8.42001
-8.03517
-5.14035
-4.35879
-5.78258
-7.47636
-8.22739
-4.84873
-6.48853
-8.09989
-7.64725
-1.8328
-5.00393
-6.65979
-5.01574
-2.40703
-6.60955
-4.158
-7.58877
-6.95614
-8.4024
-6.5305
-7.93047
-8.19177
-6.34881
-7.0806
-3.61788
-3.44178
-4.92999
-6.52735
-5.82135
-1.28115
-7.62814
-7.20126
-7.48433
-1.20297
-6.83084
-7.83577
-8.46983
-8.46362
-8.17404
-4.06835
-7.50012
-2.19534
-1.98242
-6.87357
-8.04049
-8.27042
-8.26637
-8.29151
-8.06416
-8.05655
-7.83424
-5.32578
-8.36836
-8.01888
-6.82831
-7.23351
-8.41101
-8.35574
-7.87759
-8.00309
-6.6533
-7.12387
-8.03726
-8.39016
-2.11124
-5.5358
-0.783809
-1.36461
-1.3044
-7.44903
-7.51646
-7.52339
-7.59145
-7.78693
-1.703
-7.65927
-2.58482
-2.58279
-6.36035
-5.39659
-8.54679
-5.91043
-8.08119
-5.87255
-0.937186
-7.53177
-4.25408
-7.9653
-7.78951
-8.40284
-8.38692
-6.15536
-6.97932
-8.3443
-3.99797
-5.58303
-6.83065
-5.35082
-2.38995
-2.0674
-7.40292
-7.98268
-8.17977
-7.97174
-7.12857
-7.80975
-1.07073
-8.52183
-8.52542
-2.34101
-8.34612
-1.42884
-3.29584
-8.32999
-8.36222
-7.79911
-7.77492
-8.12616
-6.52519
-6.51827
-8.36722
-8.30167
-8.30541
-7.17452
-7.01181
-8.43984
-8.44137
-8.22158
-7.14611
-2.44255
-7.33653
-8.15158
-7.81835
-2.01461
-6.95232
-7.14545
-2.94093
-6.47624
-6.1975
-7.00321
-4.46159
-8.23132
-8.09067
-8.1218
-0.524346
-8.19244
-8.35893
-1.99182
-2.07611
-5.41804
-5.82665
-5.85564
-8.16733
-7.09924
-5.35698
-8.10708
-2.63112
-7.76171
-2.23607
-6.90889
-6.89045
-5.20505
-5.03386
-8.32065
-7.8062
-7.76771
-7.60082
-6.10182
-5.10148
-8.48753
-4.75231
-8.04447
-8.43951
-7.67298
-2.26326
-7.87076
-7.96201
-7.7135
-5.7251
-0.488452
-8.40305
-6.43795
-8.49741
-1.01772
-8.58214
-2.645
-6.77439
-6.37608
-2.46192
-7.65771
-8.38571
-2.91448
-3.19196
-2.66193
-5.99292
-3.25005
-3.80938
-2.45408
-5.25035
-8.25975
-8.36322
-6.83213
-1.84774
-1.9533
-4.17061
-6.80251
-8.14481
-8.45825
-8.46535
-5.06438
-7.12125
-2.51042
-2.60074
-2.67346
-8.57955
-7.95228
-7.46088
-8.02935
-8.3633
-8.36321
-7.21247
-7.28387
-4.86616
-4.93643
-3.13009
-7.50501
-8.27022
-8.26783
-8.34581
-2.38486
-6.87635
-6.85384
-8.12186
-6.75582
-1.79577
-6.80586
-7.60138
-5.20002
-8.14061
-7.98757
-5.15684
-6.45035
-2.85368
-3.65202
-5.59259
-5.49504
-4.65326
-6.48607
-8.18452
-8.10353
-0.323187
-6.66157
-3.21274
-7.51309
-8.33388
-8.41693
-8.37094
-1.36751
-7.91888
-2.10533
-8.17726
-8.37942
-8.3659
-4.47244
-5.40803
-6.6114
-8.23744
-4.51405
-8.18488
-8.56071
-5.37782
-5.4089
-7.21052
-8.03529
-8.50781
-8.55137
-7.35144
-5.8953
-1.8938
-2.03093
-7.91377
-8.2753
-5.11277
-8.53377
-8.38021
-8.38214
-7.59708
-8.41277
-4.95598
-4.94357
-8.3836
-7.1623
-8.0788
-2.36453
-7.30858
-3.97324
-6.22531
-6.19093
-3.80328
-8.44254
-5.14652
-8.10494
-8.07755
-7.94987
-7.92689
-8.2298
-8.24141
-5.19925
-8.5437
-7.90596
-8.33863
-6.55018
-8.12653
-7.26505
-7.21391
-5.43965
-8.2352
-1.65115
-1.95653
-3.79034
-4.85297
-5.00717
-7.35113
-7.44226
-7.46495
-7.84015
-6.10779
-6.9795
-6.54959
-5.56876
-7.91849
-8.34684
-8.39232
-3.73508
-3.0669
-7.12325
-3.6933
-2.35185
-7.59814
-5.23842
-7.44561
-4.17866
-7.71486
-7.95662
-0.589919
-5.99326
-0.710238
-2.34763
-8.09377
-7.25103
-6.01292
-6.10043
-8.37896
-7.81845
-7.82841
-7.89735
-8.34861
-6.10313
-8.38646
-8.17038
-8.13766
-8.28011
-6.14922
-8.36602
-8.17847
-8.3773
-8.30128
-4.86606
-0.066329
-8.39496
-7.45688
-7.00166
-7.57637
-8.06156
-6.59662
-4.42517
-6.79399
-6.85873
-4.13519
-6.24544
-8.3256
-5.07645
-7.67026
-5.40628
-5.28698
-6.85074
-2.45689
-5.27978
-3.00691
-6.75274
-6.3823
-4.16631
-8.29035
-4.9916
-8.33047
-7.51769
-5.16688
-6.20313
-8.52358
-2.25705
-8.34719
-7.03568
-7.87373
-7.70175
-7.61828
-6.38368
-6.38759
-8.16369
-5.08085
-5.12058
-8.52747
-1.89506
-7.77201
-8.35043
-7.2409
-7.06379
-8.12594
-8.44201
-3.04692
-8.44075
-8.20053
-6.9266
-6.99773
-7.54341
-7.15543
-8.18995
-6.45582
-1.87891
-7.87055
-7.87185
-7.97373
-5.69824
-6.91183
-7.78376
-8.26191
-8.35256
-8.34756
-7.75131
-0.234945
-8.28022
-8.30023
-7.02375
-2.86302
-7.92774
-8.01926
-4.08985
-8.14638
-4.14483
-4.21243
-7.3458
-8.36742
-4.68473
-5.59648
-5.71536
-1.26449
-7.74759
-7.73672
-8.37337
-5.94585
-4.89115
-1.88521
-7.59105
-8.18391
-0.562921
-6.78255
-8.39651
-7.27423
-8.49459
-3.80223
-8.45654
-8.26618
-7.25487
-7.21765
-4.43044
-3.90018
-5.55116
-8.35481
-5.8475
-5.33683
-4.38292
-7.09369
-4.24957
-8.21684
-3.30618
-7.16109
-7.36934
-7.33572
-6.61418
-3.92747
-3.28583
-6.51407
-6.4861
-6.47148
-8.33087
-3.9317
-7.16304
-8.09319
-5.47786
-1.18093
-1.53862
-2.40171
-3.89098
-7.62614
-7.48318
-7.45855
-7.80803
-2.67458
-7.97655
-8.00879
-6.11315
-4.48815
-6.48467
-8.45189
-1.3544
-8.19854
-5.82397
-8.56285
-5.47637
-4.59356
-6.06816
-4.9104
-7.84126
-0.630406
-7.93081
-5.87295
-7.56757
-8.2599
-7.73916
-8.24148
-4.40961
-3.42038
-8.45033
-7.49547
-2.91683
-7.17847
-1.40864
-7.53993
-3.31719
-8.35167
-8.35434
-8.16937
-6.17803
-4.72516
-4.5551
-6.63306
-6.62309
-7.97432
-5.11596
-8.32008
-8.052
-7.71399
-2.47006
-8.35553
-3.32252
-7.87891
-7.88796
-3.61055
-0.759862
-7.08202
-5.67106
-5.72358
-7.35063
-8.36252
-2.66262
-8.13094
-7.93842
-5.00616
-7.42914
-8.07666
-5.43702
-8.40155
-7.62015
-7.6156
-7.82548
-8.21855
-3.50796
-7.29755
-8.37458
-7.54743
-4.07937
-8.33627
-7.71325
-8.08846
-7.97103
-6.62863
-8.34794
-4.82845
-8.30908
-7.79305
-3.94292
-6.7443
-8.16609
-8.3398
-1.62397
-1.70609
-8.29284
-6.18789
-6.2883
-6.80317
-6.92385
-6.54229
-8.44492
-6.794
-4.79629
-4.17496
-6.53619
-1.84479
-0.512516
-8.40043
-2.82293
-2.87594
-8.20393
-8.24303
-1.74589
-3.40645
-7.42516
-5.95602
-5.85875
-6.54849
-7.2163
-7.26781
-4.81612
-7.59526
-7.31508
-4.9429
-6.10776
-6.49258
-7.99232
-2.39526
-7.64781
-2.17875
-7.99614
-0.628353
-8.07696
-8.01878
-5.18096
-1.39925
-4.9428
-3.9309
-7.77593
-7.90819
-5.86157
-8.31635
-1.92379
-7.68951
-7.83084
-7.70032
-7.68696
-1.60757
-4.9308
-8.43101
-3.02937
-4.13697
-3.68816
-4.2053
-1.71688
-8.13803
-7.76493
-8.20591
-6.84075
-8.45049
-6.28112
-7.70271
-1.36051
-6.88707
-8.38863
-3.86333
-7.56107
-4.37404
-8.50703
-8.50665
-4.59416
-7.92758
-5.45927
-8.24698
-6.88267
-8.3745
-4.77219
-7.86274
-7.26404
-1.84709
-5.555
-5.59084
-3.79023
-7.89466
-7.55258
-4.15355
-5.41324
-8.5723
-7.9568
-6.55861
-7.33365
-7.88211
-8.37605
-8.38858
-8.00788
-5.7203
-8.50206
-8.56294
-6.92357
-3.04957
-3.20854
-8.40119
-7.10956
-8.355
-8.12662
-8.28053
-7.37013
-8.13937
-8.26403
-6.99892
-7.03288
-7.85376
-1.66159
-7.02025
-6.06545
-5.51468
-5.26846
-6.40414
-6.38496
-1.39942
-7.57584
-7.92212
-7.89534
-6.85725
-6.83997
-7.53816
-7.5442
-6.69521
-3.85921
-7.97552
-2.44618
-6.27042
-7.3739
-8.13766
-8.43308
-0.609967
-7.21131
-4.52944
-8.14557
-8.13969
-3.06387
-7.54896
-5.73058
-3.52419
-7.78099
-8.33654
-2.48196
-7.89777
-7.89794
-8.02503
-8.53215
-7.97667
-8.405
-8.4628
-0.244331
-8.40208
-4.46442
-8.13767
-6.13308
-5.03083
-2.23136
-2.45547
-0.923935
-1.7246
-6.06936
-1.65867
-7.93008
-8.32229
-8.31485
-8.42642
-6.03695
-2.0048
-1.90263
-7.39092
-1.58561
-4.87472
-4.84043
-7.96406
-8.31497
-6.29393
-4.93222
-8.23578
-3.31725
-7.87183
-8.1018
-1.60954
-7.05231
-0.570914
-0.56513
-5.31232
-6.64558
-8.5832
-8.39337
-7.48786
-4.22205
-4.3352
-8.05817
-8.04142
-8.3458
-2.34471
-6.63535
-3.95026
-8.39114
-6.9465
-4.7039
-6.6069
-6.64665
-7.3441
-6.40076
-8.54548
-8.56956
-2.31551
-2.25347
-8.36372
-2.0552
-7.97017
-6.20126
-7.83839
-7.88397
-4.44334
-2.96052
-5.11245
-3.47453
-5.22993
-5.75085
-8.09596
-4.35632
-8.20329
-8.18651
-3.08105
-8.35911
-2.03611
-6.70799
-8.38339
-7.55136
-7.33269
-8.34916
-8.40532
-6.12166
-4.33704
-4.13599
-7.01673
-5.56034
-7.84043
-5.44528
-5.54131
-8.39802
-8.50403
-6.86629
-7.93565
-8.4606
-7.32393
-4.48723
-4.60902
-8.00818
-6.46113
-8.57611
-8.57939
-1.70049
-1.54141
-1.48631
-0.507757
-0.728263
-8.44551
-8.45614
-7.61892
-3.11312
-6.97583
-1.74443
-6.82856
-6.8306
-7.2028
-8.32578
-2.29782
-7.98399
-8.09826
-8.14254
-5.35818
-6.77098
-8.57743
-7.77716
-8.15777
-5.40712
-7.8981
-4.65196
-7.28355
-8.1245
-0.938659
-0.738144
-1.97542
-7.65875
-1.98276
-8.36836
-4.89505
-4.85782
-2.15132
-6.69831
-4.20183
-6.88669
-6.16066
-8.34294
-3.28203
-7.59099
-8.43228
-0.660558
-7.06571
-5.49108
-7.60006
-8.44958
-7.98966
-5.29067
-8.17288
-7.31777
-5.15931
-1.08481
-6.33744
-8.23934
-6.47333
-6.75738
-1.12807
-7.96373
-7.96318
-4.95828
-7.45305
-4.57843
-4.57287
-5.26989
-7.87027
-6.77602
-6.77616
-6.51567
-8.27603
-0.639064
-0.628837
-2.28043
-2.213
-8.32985
-8.34432
-8.51829
-6.05142
-8.12782
-4.44868
-4.66979
-7.91632
-2.63518
-2.97287
-5.69026
-8.30018
-6.93491
-8.00348
-7.69173
-7.67681
-6.00557
-7.3945
-6.94499
-6.31133
-6.28425
-8.39344
-8.18791
-7.16227
-7.08347
-5.13364
-8.34884
-8.43832
-7.51009
-1.35839
-8.35885
-7.18855
-8.38364
-8.08777
-7.7372
-8.28689
-8.32198
-7.85421
-7.81469
-8.54225
-7.9768
-4.38731
-4.32102
-6.54181
-8.36379
-3.63244
-5.55795
-1.95118
-2.12962
-7.74991
-8.35704
-6.38281
-4.94357
-8.41964
-7.78795
-6.70001
-6.79116
-8.42091
-7.89753
-8.39659
-5.75598
-8.23714
-4.10601
-7.66964
-8.3486
-8.21531
-4.27865
-6.66074
-7.32637
-7.34536
-8.33858
-5.52768
-7.9009
-7.85767
-7.81403
-3.99107
-8.36645
-8.31138
-7.22751
-3.3927
-8.29578
-8.29235
-5.73679
-8.28805
-4.99642
-5.32872
-8.23513
-5.95212
-7.97418
-8.31863
-5.3739
-3.37365
-5.75831
-2.38827
-4.94321
-5.10205
-7.91088
-7.90124
-7.96274
-7.34461
-1.77291
-8.40032
-6.33126
-8.3488
-8.34677
-1.44677
-4.14254
-8.37367
-7.23641
-1.39185
-7.87833
-8.35593