/*--------------------------------*- C++ -*----------------------------------*\
  =========                 |
  \\      /  F ield         | OpenFOAM: The Open Source CFD Toolbox
   \\    /   O peration     | Website:  https://openfoam.org
    \\  /    A nd           | Version:  7
     \\/     M anipulation  |
\*---------------------------------------------------------------------------*/
FoamFile
{
    version     2.0;
    format      ascii;
    class       surfaceScalarField;
    location    "9";
    object      phi;
}
// * * * * * * * * * * * * * * * * * * * * * * * * * * * * * * * * * * * * * //

dimensions      [0 3 -1 0 0 0 0];

internalField   nonuniform List<scalar> 
19623
(
-6.55961e-07
7.2741e-07
-7.14487e-08
7.83782e-07
-6.07279e-07
-1.76504e-07
2.33522e-07
-5.69543e-07
3.36022e-07
-6.64631e-07
6.54411e-07
1.02208e-08
-4.0918e-07
6.46842e-07
-2.37662e-07
-4.15215e-07
6.73553e-07
-2.58338e-07
2.88221e-07
-7.03436e-07
-1.33158e-07
-5.25306e-07
6.58464e-07
-6.34031e-07
4.52299e-07
1.81732e-07
8.07658e-07
-4.4675e-07
-3.60908e-07
6.48039e-07
1.59618e-07
-8.20653e-08
-4.16826e-07
4.98891e-07
-4.6227e-07
7.47085e-07
-2.84814e-07
-2.31969e-07
5.95806e-07
-3.63837e-07
7.74756e-07
-5.34223e-07
-2.40533e-07
7.18017e-07
-3.27414e-07
-3.90603e-07
5.91168e-07
-7.11529e-07
1.20361e-07
3.88649e-07
2.36351e-07
3.34367e-07
3.52867e-07
-6.87234e-07
5.89004e-07
-2.54637e-07
-7.72392e-07
4.82494e-07
2.89898e-07
-5.79159e-07
-1.67209e-07
7.46368e-07
-5.6345e-07
-9.30489e-09
5.72755e-07
-8.13659e-07
4.73633e-07
3.40026e-07
6.2723e-07
-6.31672e-07
4.44185e-09
-4.68034e-08
6.74034e-07
-6.74243e-07
5.52454e-08
6.18998e-07
-3.34706e-07
-4.78953e-07
-4.51297e-07
3.69231e-07
-1.36603e-07
-5.33145e-07
6.69748e-07
-6.48456e-07
5.11853e-07
-2.5665e-07
6.45245e-07
-3.88595e-07
-6.89599e-07
5.9498e-07
9.46197e-08
3.48147e-07
1.70315e-07
-5.18462e-07
6.5888e-07
-3.10733e-07
5.07955e-07
2.66801e-07
6.90022e-07
-3.90891e-07
-2.99132e-07
-2.31909e-07
6.38904e-07
-4.06995e-07
-6.82986e-07
3.58581e-08
6.47128e-07
-7.1271e-07
3.88493e-07
3.24217e-07
2.57777e-07
3.65344e-07
-6.23121e-07
-2.3975e-07
4.97527e-07
2.63485e-07
-6.31327e-07
3.67842e-07
4.8421e-07
-7.03266e-07
2.19055e-07
3.67052e-07
3.14603e-07
-6.81655e-07
6.05709e-07
-6.92631e-07
8.69219e-08
8.04711e-07
-3.78418e-07
-4.26293e-07
-2.35786e-07
6.3721e-07
-4.01424e-07
4.27178e-07
-6.62964e-07
7.47782e-07
-4.64936e-07
-2.82846e-07
4.71088e-07
-6.4937e-07
1.78282e-07
-4.90016e-08
5.20089e-07
-2.26689e-07
6.33461e-07
-4.06772e-07
3.54296e-08
4.87961e-07
-5.2339e-07
7.39927e-07
-7.16144e-08
-6.68312e-07
3.8914e-08
-5.03505e-07
4.64591e-07
4.69497e-07
-6.67032e-07
1.97535e-07
-6.26598e-07
5.76498e-07
5.01009e-08
3.22262e-07
4.17664e-07
5.72046e-07
-7.56728e-07
1.84682e-07
7.22898e-07
-6.34141e-07
-8.87569e-08
2.36753e-08
-5.25837e-07
5.02162e-07
-7.11742e-07
2.68058e-07
4.43684e-07
-5.00613e-07
-2.34564e-07
7.35177e-07
3.58309e-07
-6.83152e-07
3.24843e-07
7.28795e-07
-3.70486e-07
4.262e-07
2.91817e-07
6.61378e-07
-5.62157e-07
-9.92211e-08
-5.56179e-07
1.46998e-07
7.76131e-07
-4.55361e-07
-3.20769e-07
4.45422e-07
7.94866e-08
-5.24909e-07
4.81009e-07
1.70101e-07
-6.5111e-07
7.33726e-07
-7.33726e-07
5.06781e-07
1.54596e-07
5.32709e-07
1.18865e-07
-6.51573e-07
-4.19643e-07
6.39543e-07
-2.199e-07
4.04997e-07
1.9947e-07
-6.04467e-07
5.20629e-07
-4.58892e-08
-4.7474e-07
-3.6845e-07
6.34333e-07
-2.65883e-07
-6.78023e-07
3.09573e-07
-5.93509e-07
-1.402e-07
7.33709e-07
3.70549e-08
-5.78576e-07
5.41521e-07
7.08738e-07
-9.67116e-08
-6.12026e-07
1.16778e-07
5.9196e-07
4.99526e-07
3.31822e-08
7.73802e-07
-6.2318e-07
-1.50622e-07
2.48572e-07
5.25231e-07
-6.53541e-07
1.1789e-07
5.35652e-07
7.47495e-07
-3.12297e-08
-7.16266e-07
1.71705e-07
5.75791e-07
3.45901e-07
-6.12723e-07
2.66822e-07
5.47932e-07
-4.43901e-07
-1.04031e-07
7.56478e-07
-6.35435e-07
-1.21043e-07
4.71729e-07
2.84749e-07
3.38926e-07
2.23962e-07
-5.62888e-07
-1.65704e-07
5.64839e-07
-3.99135e-07
-5.1434e-07
-6.40732e-08
5.78413e-07
-3.75339e-07
-3.1426e-07
3.51451e-07
-5.17155e-07
3.9035e-07
2.79519e-07
-6.69869e-07
6.22013e-07
-2.31663e-07
-3.9566e-09
5.9077e-07
-5.86813e-07
-1.2423e-07
5.40471e-07
-4.16241e-07
5.28083e-07
1.4172e-07
-6.69802e-07
-6.38207e-07
1.35486e-07
5.02721e-07
-6.28447e-08
3.85696e-07
-3.22851e-07
-5.51323e-07
5.94648e-08
4.91858e-07
-1.28549e-07
6.32018e-07
-5.0347e-07
1.06537e-07
-5.2618e-07
-6.82986e-07
-5.26911e-07
-3.87355e-08
5.65646e-07
-3.41019e-07
6.72709e-07
-3.3169e-07
2.80321e-07
-6.2134e-07
2.2433e-07
-5.44446e-07
3.20116e-07
-4.89674e-07
3.65444e-07
-1.34484e-07
-4.5265e-07
5.87134e-07
-3.79922e-07
4.15352e-07
6.83827e-07
-4.88195e-07
-1.95632e-07
5.4766e-07
-5.02074e-09
-5.42639e-07
3.03956e-07
-5.37263e-07
2.33307e-07
-2.6698e-07
5.70936e-07
-6.83481e-07
6.83481e-07
-8.8816e-08
6.4317e-07
-5.54354e-07
1.19624e-07
4.7872e-07
-5.98344e-07
4.31663e-07
-6.56002e-07
2.24338e-07
6.51888e-07
-2.20225e-07
-4.89323e-07
-2.83069e-07
4.50915e-07
1.85697e-07
-6.36612e-07
1.25201e-07
3.87025e-07
-5.12226e-07
5.54942e-07
-8.5445e-08
-4.90803e-07
-1.26024e-07
-4.81269e-07
-1.39278e-07
5.7046e-07
8.33011e-08
-6.53761e-07
-6.97496e-07
5.68607e-07
1.28889e-07
-3.35799e-07
5.60129e-07
3.69777e-07
-6.75694e-07
3.05917e-07
5.96848e-07
-1.9185e-07
2.24763e-07
4.34022e-07
-6.58785e-07
4.39812e-07
1.8957e-07
-6.29382e-07
-2.01951e-07
5.40878e-07
-4.83226e-07
-8.58534e-08
-5.37327e-07
-6.51233e-07
5.6538e-07
-4.16825e-07
-2.61674e-07
6.785e-07
2.71106e-07
-6.87932e-07
-2.42154e-07
-3.94827e-07
6.3698e-07
-7.06255e-07
1.56782e-07
5.49473e-07
7.62891e-07
-5.66214e-07
-1.96677e-07
-3.56569e-07
-1.91072e-07
5.47641e-07
7.25248e-07
1.54179e-08
-7.40665e-07
-1.26266e-07
-5.07906e-07
6.34172e-07
-5.00721e-07
-1.82431e-07
-5.5181e-07
5.1089e-08
-6.22851e-07
1.71555e-07
-6.4228e-07
7.40009e-07
-9.77284e-08
4.30208e-07
-3.91294e-07
-4.00762e-07
6.99906e-07
-2.99143e-07
5.01142e-07
-1.65509e-07
-3.35633e-07
1.99964e-07
5.83818e-07
5.03502e-07
1.08812e-07
-6.12314e-07
-2.20177e-07
7.2368e-07
3.81181e-07
-6.13091e-07
-5.82971e-07
3.18346e-07
2.64625e-07
-3.51204e-07
7.37928e-07
-3.86724e-07
3.74952e-07
2.94379e-07
-6.69332e-07
7.26317e-07
-3.554e-07
-3.70918e-07
-1.35042e-07
-4.21314e-07
5.56357e-07
-5.00613e-07
5.44626e-07
1.81691e-07
-7.42804e-07
3.67578e-07
3.75226e-07
-5.53257e-07
-1.55466e-07
7.08724e-07
4.3261e-07
2.66327e-07
-6.98936e-07
6.75587e-07
-2.42977e-07
6.0087e-07
-1.55448e-07
6.03615e-07
-1.86739e-07
-4.16876e-07
4.97077e-07
3.37335e-08
-5.3081e-07
3.31723e-07
-6.52333e-07
3.2061e-07
5.33306e-07
-1.87405e-07
-4.56029e-07
-1.84732e-07
6.40761e-07
5.97539e-07
-4.72337e-07
-6.94827e-07
8.26954e-08
6.12132e-07
3.22723e-07
3.9742e-07
-7.20143e-07
4.0646e-07
2.1854e-07
6.9705e-07
-4.72286e-07
-7.73888e-07
2.83586e-07
4.90302e-07
1.49306e-07
-7.13416e-07
5.6411e-07
-5.09122e-07
6.58428e-07
-1.20107e-07
6.17184e-07
-5.00368e-07
6.16362e-07
-1.15995e-07
4.72808e-07
2.54942e-07
-7.27749e-07
2.65498e-07
-6.59665e-07
3.94167e-07
4.10648e-07
1.37284e-07
-5.88116e-07
6.08211e-07
-2.00949e-08
5.73122e-07
-7.09511e-07
1.3639e-07
5.47819e-07
-7.54005e-07
2.06186e-07
-8.73731e-08
5.2915e-07
-4.41777e-07
6.79051e-07
-3.56328e-07
-7.54035e-07
4.78769e-07
2.75265e-07
-3.17959e-07
7.15822e-07
-3.97864e-07
5.80622e-07
-7.27069e-07
1.46446e-07
-4.36052e-07
-9.03972e-08
5.26449e-07
1.98281e-07
-7.11688e-07
4.26999e-07
2.8469e-07
2.4189e-07
5.05892e-07
-6.01287e-07
4.66803e-07
-3.5081e-07
6.4654e-07
-2.9573e-07
-5.04899e-07
-2.68988e-07
-2.93154e-07
-3.14131e-07
-5.19321e-07
-4.68318e-08
5.66153e-07
-2.50164e-07
-2.69512e-07
5.19676e-07
-3.65041e-07
5.98563e-07
-2.89694e-07
-3.1551e-07
3.82796e-07
2.77916e-07
-6.60712e-07
-8.17276e-07
4.88408e-07
3.28869e-07
-7.11321e-07
7.11321e-07
2.78782e-08
-4.92648e-07
4.6477e-07
-4.78815e-07
2.24216e-08
4.56393e-07
-7.15655e-07
1.96334e-07
-5.49709e-07
-1.98348e-08
-4.90275e-07
-1.30341e-07
-1.93986e-07
5.61038e-07
-1.21648e-07
-4.275e-07
5.49147e-07
-1.36726e-07
-1.3725e-07
5.77063e-07
-7.33986e-07
5.7941e-07
1.54576e-07
7.62182e-07
-7.21601e-08
4.98541e-07
-1.17909e-07
-3.80632e-07
6.68148e-07
-2.79499e-07
7.24315e-07
-5.20604e-07
-2.03711e-07
-1.84087e-07
-5.20609e-07
7.04695e-07
6.45631e-07
-5.72259e-07
-7.33713e-08
-7.31027e-07
5.29076e-07
-8.37246e-08
-6.47303e-07
3.24208e-07
-5.56177e-07
1.45127e-07
-6.01156e-07
-2.43543e-07
-4.30701e-07
-4.72731e-07
7.36216e-07
2.65244e-07
3.34849e-07
-6.00093e-07
-4.27926e-07
6.9317e-07
1.28093e-07
4.66887e-07
6.79519e-07
-1.15641e-07
-5.63878e-07
-1.35159e-07
8.14678e-07
-2.30055e-07
-4.09252e-07
6.39307e-07
8.57626e-07
-6.00494e-07
-2.57132e-07
4.81639e-07
3.75988e-07
6.69497e-07
-7.36914e-08
4.66374e-07
-7.8431e-07
3.17936e-07
5.76534e-07
-1.1016e-07
5.90991e-07
-7.91828e-07
2.00837e-07
-6.32014e-07
6.47556e-07
-1.55421e-08
4.61941e-07
1.09887e-07
-5.71829e-07
-6.82882e-07
5.56481e-08
6.27234e-07
7.27445e-07
-4.40682e-07
-2.86764e-07
5.33586e-07
1.93859e-07
2.10688e-07
-6.10244e-07
3.99557e-07
2.60259e-07
2.96937e-07
-5.57196e-07
8.09462e-08
-4.95913e-07
4.14967e-07
-6.22025e-07
1.31222e-07
-6.15131e-07
1.33862e-07
2.60315e-07
3.72702e-07
-6.33017e-07
-7.84326e-07
4.97687e-07
2.86639e-07
3.82742e-07
-5.54487e-07
1.71745e-07
6.33956e-07
-7.60247e-07
1.26291e-07
-4.17953e-07
-2.03759e-07
6.21711e-07
6.16091e-07
-3.54688e-08
-4.75708e-07
-1.27155e-07
6.02864e-07
2.83142e-07
3.10937e-07
-5.53091e-07
6.82491e-07
-8.00441e-10
-6.8169e-07
-2.62896e-07
-2.15183e-07
4.7808e-07
6.70164e-07
-3.68992e-07
-3.01171e-07
4.79969e-07
1.90195e-07
2.57275e-07
4.76451e-07
7.32327e-08
5.03938e-07
-5.7717e-07
6.00565e-07
1.0764e-08
-6.11329e-07
-4.59719e-07
6.75076e-07
-2.15357e-07
-5.05746e-07
7.51804e-07
-2.46058e-07
9.75134e-08
-6.0326e-07
5.45309e-07
2.30821e-07
2.98928e-07
2.56553e-07
-5.5548e-07
3.61343e-07
-6.23414e-07
2.62071e-07
-7.15065e-07
4.28088e-07
2.86977e-07
-2.80406e-07
-4.34659e-07
-3.07462e-08
5.58829e-07
-6.0157e-07
5.57185e-07
4.43854e-08
-6.67108e-07
4.10006e-07
2.57103e-07
-3.28547e-07
-3.38561e-07
5.81042e-07
3.10704e-08
-6.12112e-07
-2.52706e-07
-4.82649e-07
7.35356e-07
4.71691e-07
2.68499e-08
3.13347e-07
2.07282e-07
4.56699e-07
-6.65972e-07
2.09273e-07
-7.66194e-07
4.78152e-07
2.88042e-07
-5.01663e-07
5.81786e-07
-8.01222e-08
-5.22647e-07
2.59751e-07
-5.72031e-07
6.33099e-07
-6.10679e-08
1.68995e-07
4.87685e-07
-6.5668e-07
6.93132e-07
-5.24137e-07
-7.04901e-08
-5.57058e-07
6.27549e-07
-6.02249e-07
5.31759e-07
5.91962e-07
-3.29212e-07
-2.62751e-07
-5.07633e-07
-1.02835e-07
6.10468e-07
6.85056e-07
-5.28916e-07
-1.5614e-07
5.28343e-07
1.56713e-07
-4.38341e-07
-2.25011e-07
6.63352e-07
6.10037e-07
-1.08895e-07
6.27663e-07
-5.31218e-07
-9.64448e-08
-4.84888e-07
7.02756e-07
-2.17868e-07
-5.48014e-07
-1.16617e-07
-1.79502e-08
6.09913e-07
-6.47232e-07
4.56618e-08
7.07237e-07
-4.3716e-07
-2.70078e-07
6.56005e-07
-7.65003e-07
1.08999e-07
-5.6581e-07
5.73388e-07
-7.57753e-09
6.16917e-07
-2.10457e-07
5.19543e-07
-6.08359e-07
7.23637e-07
-2.04093e-07
-7.45199e-07
-7.20771e-08
-1.76559e-07
-5.79712e-07
7.56271e-07
2.32372e-07
-6.87298e-07
4.54926e-07
-2.98183e-07
5.8808e-07
-2.89897e-07
2.50102e-07
-6.13823e-07
3.63721e-07
7.88026e-07
-2.1335e-07
-5.74676e-07
1.86556e-07
6.0147e-07
-1.28756e-07
5.91168e-07
-4.62412e-07
5.40175e-07
-7.44411e-07
2.04236e-07
-4.57966e-07
6.67728e-07
-2.09762e-07
6.10957e-07
-6.81368e-07
7.04107e-08
-3.98879e-07
-1.44061e-07
5.4294e-07
6.33695e-08
6.61878e-07
7.82809e-07
-4.63454e-07
-3.19355e-07
2.48586e-07
5.42081e-07
-9.83501e-08
-4.43731e-07
4.20964e-07
1.21118e-07
-5.35648e-07
2.13082e-08
-3.38549e-07
6.93736e-07
-3.55187e-07
3.82112e-07
-7.20662e-07
-1.51504e-07
5.24063e-07
-3.72558e-07
4.50224e-07
2.57014e-07
3.43063e-08
4.75964e-07
-5.1027e-07
5.58066e-07
-2.59138e-07
-5.18255e-07
-1.93487e-07
6.73241e-07
-5.85707e-07
-8.75333e-08
6.8877e-07
-6.55196e-08
-6.2325e-07
5.10946e-08
6.37675e-07
5.94482e-07
-2.81135e-07
7.07844e-07
-3.72907e-07
-3.34937e-07
6.25013e-07
8.28304e-08
-1.12545e-07
5.28373e-07
-4.15828e-07
-3.44489e-07
6.78122e-07
-3.33632e-07
-6.61759e-07
3.1727e-07
-6.3793e-07
5.02887e-07
4.67036e-07
2.95855e-07
6.09739e-07
-5.79678e-07
-3.00612e-08
9.99436e-08
5.09796e-07
4.42021e-07
-6.62378e-07
2.20357e-07
-1.26692e-07
5.16485e-07
-3.89793e-07
-4.88821e-07
3.62128e-07
1.10317e-07
4.90248e-07
-6.92498e-07
5.72058e-07
1.20439e-07
-6.68191e-07
5.15013e-07
1.53178e-07
-7.45679e-07
3.24364e-07
3.48813e-07
-5.97758e-07
2.48945e-07
5.80952e-07
4.42263e-07
1.79127e-07
-6.2139e-07
2.27881e-10
6.05481e-07
7.64111e-08
5.14757e-07
2.75145e-07
3.16691e-07
-5.91836e-07
-4.5381e-07
7.28955e-07
3.68898e-07
-4.56271e-07
7.39628e-07
-5.45694e-07
-1.93934e-07
1.01368e-07
-5.93917e-07
4.92549e-07
5.9678e-07
-5.15834e-07
-6.64488e-07
5.52448e-07
1.12039e-07
4.02348e-07
1.16656e-07
-5.19004e-07
6.71309e-07
-6.22508e-07
-4.88003e-08
-3.98904e-08
4.67978e-07
7.68698e-07
-4.14081e-07
-3.54618e-07
-6.6171e-07
1.71435e-07
-6.47858e-07
-8.9313e-08
7.37171e-07
5.537e-07
-6.04062e-09
2.69594e-07
4.49979e-07
-7.19573e-07
7.03719e-07
-1.559e-07
6.90894e-07
-2.82295e-07
-4.08599e-07
3.68405e-07
-5.9935e-07
2.30946e-07
2.12581e-07
-6.1146e-07
-4.93659e-07
-7.0243e-07
5.5892e-07
1.4351e-07
6.81575e-07
-4.34968e-07
-2.46608e-07
2.4313e-07
3.38823e-07
-5.81952e-07
7.23683e-07
-3.10845e-07
-4.12837e-07
-7.92145e-07
3.65458e-07
4.26687e-07
-4.54114e-07
-3.38032e-07
-5.49595e-07
-1.75928e-07
7.25523e-07
-6.46306e-07
6.99396e-07
-2.90112e-07
-4.09284e-07
1.13896e-07
6.25731e-07
5.20302e-07
-4.83247e-07
-4.52537e-08
-4.48405e-07
7.55601e-08
-5.03486e-07
-4.21833e-07
-1.78836e-07
6.0067e-07
-6.21069e-07
1.99235e-07
7.86989e-07
-3.57064e-07
-4.29925e-07
-5.40704e-07
-1.37334e-07
6.78039e-07
-4.86739e-07
5.62299e-07
4.90766e-07
-6.93089e-07
2.02323e-07
5.78776e-07
-1.96034e-07
-5.19494e-07
7.37876e-07
-2.18382e-07
9.72528e-08
-5.55218e-07
6.94253e-07
-3.39478e-07
-3.54775e-07
6.77573e-07
1.66807e-08
-5.54978e-08
5.25353e-07
-4.69855e-07
7.5302e-07
-3.84904e-07
-3.68116e-07
3.30612e-07
2.19915e-07
-5.50527e-07
5.54784e-07
-1.54705e-07
-4.0008e-07
-1.32991e-07
5.75012e-07
-7.75206e-07
2.51054e-07
5.24152e-07
4.69377e-07
1.57439e-08
-4.85121e-07
-9.72759e-08
6.14059e-07
-5.16783e-07
2.02002e-07
-5.57402e-07
-1.36902e-08
-6.24517e-07
6.47122e-07
-4.86958e-08
-5.98427e-07
-1.24936e-08
6.59616e-07
7.25681e-07
-3.8243e-07
-3.43251e-07
2.98442e-07
4.70257e-07
6.26526e-07
-6.09253e-07
-1.72728e-08
-7.43388e-07
3.0583e-07
4.37558e-07
-5.57172e-07
5.57172e-07
-6.89084e-07
3.44561e-07
3.44523e-07
-6.62547e-07
2.61784e-07
-6.14118e-07
7.10996e-07
-9.68778e-08
-3.41938e-08
-4.70881e-07
5.05074e-07
1.43351e-07
4.96617e-07
-6.39968e-07
-3.71215e-07
5.06701e-07
2.94252e-07
-7.32593e-07
1.56672e-07
-7.20122e-07
5.42159e-07
-7.18016e-07
1.75857e-07
-8.22504e-07
1.87069e-07
-3.92372e-07
7.10975e-07
-3.18603e-07
6.24652e-07
-6.25024e-07
3.71031e-10
-3.96589e-07
7.74153e-07
-3.77564e-07
-3.74465e-07
-4.57611e-07
3.06106e-07
5.76051e-07
-1.27668e-07
-4.48384e-07
-6.29989e-07
5.7958e-08
7.04074e-07
-7.04074e-07
-1.52429e-07
-4.63819e-07
6.16247e-07
-6.74564e-07
3.82828e-07
2.91736e-07
1.70781e-07
-5.98427e-07
4.27646e-07
3.55202e-07
3.44194e-07
-7.27486e-07
2.65402e-07
4.62085e-07
-3.40897e-07
-3.86589e-07
-1.05696e-07
-4.70043e-07
5.75739e-07
-2.2106e-07
5.84894e-07
-3.63833e-07
-1.64352e-07
-3.52049e-07
5.16401e-07
-3.87561e-07
6.66228e-07
-2.78667e-07
5.01401e-07
2.28527e-07
-7.29928e-07
6.07491e-07
-1.28758e-07
-4.78733e-07
2.9595e-07
-5.26005e-07
6.11218e-07
1.90467e-07
-8.01685e-07
5.6934e-08
-5.10874e-07
4.5394e-07
-1.23685e-08
-4.4469e-07
4.57059e-07
6.428e-07
-1.54839e-07
6.42648e-07
-1.60446e-07
-4.82202e-07
-1.46624e-07
-4.27832e-07
5.74456e-07
-5.68257e-07
-9.62304e-08
6.45407e-07
-1.7603e-07
3.44617e-07
-6.19235e-07
2.74619e-07
1.40522e-07
4.40724e-07
-5.81245e-07
5.79774e-07
-4.39253e-07
-2.85231e-07
5.45546e-07
7.22983e-07
-2.37736e-07
-4.85247e-07
-4.53345e-07
-3.42645e-07
-3.54851e-07
3.01835e-07
-6.98423e-07
-6.52841e-07
2.96272e-07
-6.01093e-07
5.54359e-07
4.67341e-08
-4.33451e-07
-2.1939e-07
1.65382e-07
4.31466e-07
6.29677e-07
-4.64295e-07
1.39441e-07
4.6805e-07
8.10404e-07
-2.69932e-07
1.7438e-07
3.9608e-07
-7.88255e-08
-3.62183e-07
4.41009e-07
8.14424e-07
-5.9488e-07
-2.19543e-07
-6.23481e-07
-1.30553e-07
-5.00761e-07
5.48776e-07
-4.80151e-08
5.23839e-07
-2.73737e-07
-5.92479e-07
4.63931e-07
8.48265e-08
5.60804e-07
-1.73694e-07
6.07663e-07
-4.33969e-07
-2.22978e-07
-2.5533e-07
4.78308e-07
-5.49914e-07
7.56224e-07
-2.06309e-07
-6.79194e-07
2.61241e-07
-6.20933e-07
1.14519e-07
5.06414e-07
2.39221e-07
-5.5718e-07
-3.52077e-07
-2.94938e-07
6.47015e-07
-2.50579e-08
4.51258e-07
-6.00489e-07
6.55031e-07
-5.45423e-08
-5.71666e-07
6.43515e-07
-7.18484e-08
-5.10565e-07
3.64581e-07
-5.87559e-07
5.82606e-07
5.28029e-08
-6.35409e-07
-2.49043e-07
-4.62278e-07
-3.71084e-07
-2.31518e-07
6.02603e-07
5.35826e-07
-5.81715e-07
7.8848e-07
-2.2549e-07
-5.6299e-07
3.20633e-07
-5.549e-07
2.34267e-07
-2.37116e-07
6.47122e-07
-7.4209e-07
5.04974e-07
-2.57568e-07
-3.63365e-07
2.72372e-07
2.44464e-07
-5.16836e-07
6.67469e-09
-5.14308e-07
-6.03124e-07
7.5222e-07
-1.49096e-07
5.78869e-07
-5.85396e-08
-5.20329e-07
-7.77724e-07
7.59271e-07
1.84525e-08
-3.9004e-07
6.93197e-07
-3.03157e-07
6.01421e-07
-5.1252e-07
-8.89014e-08
-4.52e-08
-5.04714e-07
-4.6626e-07
3.53715e-07
-5.11448e-07
6.40431e-07
-1.28983e-07
1.85396e-07
-6.96844e-07
-5.07452e-07
-4.6103e-08
5.53555e-07
8.15125e-07
-6.0375e-07
-2.11375e-07
5.21033e-07
2.94092e-07
2.99225e-07
-5.43085e-07
2.4386e-07
1.33834e-07
-4.83079e-07
3.49245e-07
-6.58673e-07
2.32921e-08
6.35381e-07
-3.59106e-07
6.05388e-07
-2.46282e-07
2.50214e-07
-6.09319e-07
3.16651e-07
-6.51357e-07
3.34707e-07
3.51661e-07
-4.48937e-07
5.40128e-07
2.4134e-08
-5.64262e-07
5.92009e-07
-5.14869e-07
-7.71397e-08
-4.36402e-07
-1.493e-07
5.85702e-07
-7.52068e-07
3.15666e-07
1.14522e-09
-4.77671e-07
4.76526e-07
6.50855e-07
-2.26502e-08
-6.28205e-07
6.30959e-07
1.98959e-08
-1.6399e-07
-4.48036e-07
3.54929e-07
3.0275e-07
-6.57679e-07
5.80799e-07
-2.19456e-07
6.58282e-07
-2.60863e-07
-1.373e-07
5.39648e-07
2.95527e-07
4.57493e-07
4.255e-07
-6.79643e-07
6.15521e-08
6.18091e-07
5.982e-07
-6.02156e-07
-5.45833e-08
-5.65396e-07
6.1998e-07
-7.8455e-08
-5.80218e-07
1.16383e-07
4.99792e-07
-6.16176e-07
-5.60045e-07
6.76428e-07
5.83661e-07
-3.87128e-07
-1.96533e-07
4.09311e-07
1.7435e-07
5.04011e-07
7.29413e-09
-5.11305e-07
5.77787e-07
1.47894e-07
5.50622e-07
-6.39901e-07
8.92795e-08
-5.96841e-07
4.32489e-07
1.52161e-07
-6.79072e-07
-1.70374e-07
-5.13107e-07
6.48528e-07
-7.64819e-08
-6.15835e-07
6.44966e-07
-2.91305e-08
5.54445e-07
-3.97207e-07
-1.57239e-07
5.85398e-07
2.03081e-07
7.44989e-07
-3.78598e-07
-3.66391e-07
-4.18386e-07
7.54013e-07
-3.35626e-07
5.75885e-07
-5.06298e-07
-6.95872e-08
3.1461e-07
3.43672e-07
-2.42156e-07
-4.19056e-07
6.61213e-07
4.40895e-08
-5.28978e-07
-5.15841e-07
7.85338e-07
-2.69497e-07
-5.71339e-07
-6.72036e-07
3.33007e-07
3.39029e-07
2.52381e-07
-7.24224e-07
4.71844e-07
1.72802e-07
4.31769e-07
-6.04571e-07
-1.07805e-07
-5.48156e-07
-6.59468e-07
2.23707e-07
4.35761e-07
7.58998e-08
-4.27103e-07
-1.76201e-07
4.96834e-07
-6.04815e-07
7.0839e-07
-1.03575e-07
5.89353e-07
-5.55047e-07
7.1548e-07
-3.09619e-07
-4.05861e-07
-1.75434e-07
-3.87935e-07
5.63369e-07
4.38625e-07
1.58559e-07
-6.38933e-07
5.40726e-07
9.82079e-08
3.86065e-07
-6.13557e-07
2.27492e-07
5.72621e-07
1.70044e-08
3.89757e-07
-4.06761e-07
-5.33958e-07
5.50962e-07
-5.22702e-07
4.43876e-07
8.92785e-07
-3.33329e-07
-5.59456e-07
-5.79481e-07
6.02869e-07
-2.33879e-08
6.31578e-07
-3.59206e-07
-5.95078e-07
-3.37871e-08
6.28865e-07
4.68855e-07
-5.9601e-07
6.15885e-07
1.07014e-07
2.06167e-07
-5.93727e-07
4.8091e-07
1.92331e-07
3.40679e-07
-6.83577e-07
3.42898e-07
5.57532e-07
3.35253e-07
-4.46727e-07
-2.50609e-07
6.97337e-07
2.96939e-07
-7.43666e-07
6.60952e-07
-3.6251e-07
-5.74443e-08
-5.4568e-07
2.14202e-07
4.9467e-07
8.13815e-08
5.67096e-07
-1.84995e-07
-3.82101e-07
-2.11607e-07
4.71866e-07
4.10973e-07
5.74503e-08
-4.68423e-07
-2.72762e-07
3.90652e-07
3.19932e-07
4.17996e-07
-5.81245e-07
-1.93961e-07
5.31719e-07
-9.45287e-08
-4.3719e-07
6.35238e-07
-4.87647e-07
-1.47591e-07
-6.91613e-07
2.31894e-07
-5.9964e-07
3.76359e-07
2.23281e-07
-5.04544e-07
-4.87135e-08
5.79036e-07
-2.45905e-08
2.24168e-07
2.80583e-07
-5.04751e-07
-6.29836e-07
6.29836e-07
-1.96624e-07
5.71576e-07
-5.23968e-07
-1.87561e-07
8.5882e-07
-5.55409e-07
-3.0341e-07
6.9866e-07
1.6016e-07
-4.2372e-08
-3.89504e-07
-2.69964e-07
3.80687e-07
1.66164e-07
-5.46851e-07
5.85842e-07
-3.52199e-08
-5.59728e-07
5.62438e-07
-2.71059e-09
3.55481e-08
-5.95276e-07
5.61203e-07
-7.41623e-07
1.8042e-07
-8.82868e-08
-5.43727e-07
4.41726e-07
-6.1039e-08
-4.44655e-08
-5.50612e-07
1.32003e-08
6.13325e-07
4.19294e-07
-3.6236e-07
3.74533e-07
2.42588e-07
-6.17121e-07
7.42405e-07
-4.18197e-07
6.76424e-07
-4.49182e-07
-2.27242e-07
2.68926e-07
5.45498e-07
-2.23293e-07
-4.48743e-07
7.09505e-07
-4.94195e-07
-2.1531e-07
1.96499e-07
-4.53149e-07
-6.19382e-07
5.01789e-07
1.17593e-07
6.15233e-07
1.70106e-07
8.2449e-08
4.5072e-07
-5.33169e-07
6.60326e-07
-2.82709e-07
-3.77617e-07
1.33014e-07
-5.09259e-07
3.76245e-07
1.93437e-07
3.67786e-07
-5.61223e-07
5.85549e-07
-3.92112e-07
6.23515e-08
6.04639e-07
-6.66991e-07
-6.65455e-07
1.24751e-07
5.33644e-07
1.20766e-07
-4.33143e-07
-2.35048e-07
5.21728e-07
-3.50947e-07
6.36286e-07
-4.18518e-07
-2.17768e-07
7.07752e-07
-4.32684e-07
-9.47137e-08
5.27398e-07
-6.73584e-07
6.6109e-07
6.8661e-07
-8.29944e-08
-5.28114e-07
6.86717e-07
-1.58603e-07
-5.57609e-07
3.9362e-07
7.33397e-07
-5.05551e-07
-2.27846e-07
5.76573e-07
1.56824e-07
7.0393e-07
-5.1453e-07
-1.894e-07
2.08035e-07
4.95895e-07
-6.50538e-07
6.50538e-07
5.4965e-07
-1.81245e-07
-5.51032e-07
-2.27503e-07
7.78535e-07
6.76558e-07
-4.32094e-07
-4.95955e-07
-1.38076e-07
-7.78539e-07
2.13554e-07
5.64984e-07
6.42833e-07
-1.85084e-10
-4.16642e-07
4.04273e-07
-4.09627e-07
5.54753e-07
-5.49535e-07
-2.90404e-08
3.73734e-07
3.26547e-07
-7.00281e-07
1.38259e-07
-6.17073e-07
1.88271e-07
3.45374e-07
-3.5526e-07
5.43531e-07
4.49147e-07
-4.48002e-07
-2.25757e-07
5.95534e-07
1.1695e-07
-5.49634e-07
7.18039e-07
-2.23425e-07
-4.94615e-07
-6.60835e-07
7.35448e-08
5.87291e-07
-9.70603e-08
-5.63775e-07
-3.12762e-07
4.84188e-07
-1.71426e-07
2.88548e-07
3.82776e-07
-6.71324e-07
7.31424e-07
-4.42876e-07
3.12504e-07
3.36282e-07
-6.48787e-07
4.66309e-09
-5.32436e-07
5.27773e-07
7.28567e-07
-1.81643e-07
-5.46924e-07
-4.02545e-08
7.68822e-07
7.3279e-07
-1.85363e-07
-5.47427e-07
-3.85927e-07
4.68694e-07
-3.34859e-07
-5.98088e-07
4.26791e-08
-1.38686e-08
-5.05626e-07
6.81692e-07
-5.94164e-07
-8.75285e-08
-5.15255e-07
6.00687e-07
-8.54315e-08
-5.58939e-07
-5.68962e-08
-8.85202e-08
4.39952e-07
-3.51431e-07
4.08031e-07
-4.70876e-07
6.08803e-07
-6.78071e-07
6.92678e-08
7.17898e-07
-1.09095e-07
4.1079e-07
2.24448e-07
-6.1407e-07
4.92422e-07
5.87099e-07
1.21513e-07
-7.08612e-07
-5.76708e-07
5.041e-07
7.26082e-08
7.72985e-07
-2.78697e-07
-4.94288e-07
4.0177e-07
6.18799e-07
-1.86678e-07
-4.32121e-07
-5.82054e-07
9.36105e-09
5.72693e-07
-4.91882e-07
4.10522e-07
3.94189e-07
1.11332e-07
5.65092e-07
9.12262e-08
4.23468e-07
-5.14694e-07
6.59983e-07
-5.04894e-07
-1.5509e-07
-6.75215e-07
4.02691e-07
2.72525e-07
-2.41754e-07
6.43802e-07
-4.02048e-07
-3.15626e-07
-3.15248e-07
6.30874e-07
-3.82771e-07
6.14283e-07
-2.31512e-07
-5.30211e-07
-3.18168e-08
5.62027e-07
-4.44525e-07
-2.98279e-07
-7.02786e-07
2.7415e-07
4.28636e-07
4.44653e-07
1.99435e-07
-6.44087e-07
-3.31066e-07
-4.58945e-07
7.90011e-07
3.15974e-07
-5.96683e-07
2.80709e-07
-4.4065e-07
7.84343e-07
-3.43693e-07
-5.81202e-07
5.76181e-07
5.84393e-07
-4.52798e-07
-1.31595e-07
-7.40547e-07
9.26892e-08
-4.96251e-07
-2.81473e-07
-4.05178e-07
5.06546e-07
-6.07168e-07
6.07168e-07
2.90004e-08
-6.33816e-07
-1.52754e-07
-4.43816e-07
5.96571e-07
4.78205e-07
5.99376e-07
-3.75208e-07
2.80954e-07
2.60617e-07
-5.41571e-07
6.06524e-07
-3.2557e-07
6.67407e-07
-3.36795e-07
-7.87052e-07
5.41959e-07
2.45093e-07
2.13096e-07
-6.46439e-07
4.33343e-07
-6.94244e-07
2.81295e-07
4.12949e-07
-5.82883e-07
7.25297e-07
-1.42414e-07
-1.96262e-07
-3.05402e-07
3.3034e-07
3.56187e-07
-6.86527e-07
5.88775e-07
-6.55445e-07
6.66704e-08
-2.27114e-07
7.05834e-07
-6.71762e-07
-1.73216e-08
-5.35118e-07
-2.31076e-07
-5.72534e-07
7.05224e-07
-2.38297e-07
-4.66927e-07
7.577e-08
4.02999e-07
-4.9757e-07
-1.41363e-07
-1.5491e-07
5.35927e-07
-3.81017e-07
5.81456e-08
-5.73401e-07
-2.54992e-07
6.01841e-07
-3.46849e-07
3.45034e-07
1.85143e-07
-5.30178e-07
5.77169e-07
5.91167e-08
6.88117e-07
-5.41615e-08
-6.04383e-07
4.9953e-07
1.04854e-07
-4.75777e-07
-2.51291e-07
-4.30658e-08
-4.02987e-07
4.46053e-07
-3.37271e-07
-1.6349e-07
-2.83586e-08
-4.41892e-07
4.70251e-07
-2.82819e-08
4.134e-07
-3.85118e-07
5.5488e-07
-5.83162e-07
-5.31778e-07
4.13868e-07
-5.92557e-07
2.21473e-07
5.65236e-07
-2.20619e-07
-5.42598e-07
-2.294e-07
7.71998e-07
1.54781e-07
-5.87925e-07
-6.7351e-07
-5.55273e-07
1.83383e-07
-4.96145e-07
-6.25743e-07
-6.90836e-08
5.23821e-07
-6.96781e-07
1.7296e-07
-1.07169e-08
5.507e-07
-5.39983e-07
2.78537e-07
-6.20755e-07
3.42218e-07
-1.89587e-07
6.56418e-07
-4.66831e-07
4.6269e-07
-6.52276e-07
5.64353e-07
-6.92494e-07
1.28141e-07
-2.374e-07
5.91081e-07
-3.53681e-07
3.99081e-07
-6.36481e-07
-1.60288e-07
6.0494e-07
-5.52454e-07
1.04049e-07
4.91529e-07
-5.80049e-07
-5.24685e-07
2.77889e-07
2.46796e-07
-5.07375e-07
-2.79676e-07
3.4427e-08
4.26704e-07
-4.61131e-07
-3.01066e-07
5.78765e-07
-2.77699e-07
5.01518e-08
4.20043e-07
-4.70194e-07
-1.21435e-07
-5.71062e-07
-6.53157e-07
2.19869e-07
4.33288e-07
-1.59551e-07
5.63999e-07
1.68998e-07
4.24161e-07
-5.93159e-07
7.08778e-07
-1.83424e-07
-4.35263e-07
5.18564e-07
6.65363e-07
-3.1655e-07
-2.68675e-07
6.7194e-07
-4.03265e-07
3.56876e-07
3.09504e-07
-6.6638e-07
-4.74916e-07
-1.32253e-07
-2.62675e-07
5.92518e-07
-3.29844e-07
5.80916e-07
1.40695e-07
-7.21612e-07
-6.81003e-07
1.11169e-07
5.69834e-07
-1.88045e-07
5.94285e-07
-4.0624e-07
-4.61717e-07
-3.60787e-07
3.52108e-07
-6.45074e-07
2.92966e-07
-2.5477e-07
-4.38319e-07
-4.28308e-07
7.08629e-07
8.54811e-08
4.01554e-07
-4.87035e-07
9.48409e-08
4.9615e-07
5.32448e-07
-4.49999e-07
6.52966e-07
-2.05194e-07
-4.47772e-07
7.29068e-07
-7.61016e-08
5.10283e-07
2.14031e-07
-2.60807e-07
5.67772e-07
-3.06965e-07
5.36118e-07
-6.20561e-07
8.44433e-08
9.46624e-08
4.41455e-07
-5.05347e-07
5.29022e-07
3.14832e-07
-4.16961e-07
-2.02421e-07
6.8577e-07
-2.02947e-07
-4.82823e-07
-3.14271e-07
-1.70102e-07
4.84373e-07
3.38207e-07
2.96442e-07
-6.34649e-07
1.79736e-07
-4.94007e-07
-1.73258e-07
5.56054e-07
-7.67682e-07
5.48417e-07
2.19264e-07
-2.83471e-07
-3.16168e-07
9.12225e-08
-6.70703e-07
6.82665e-07
-1.00059e-07
3.27756e-07
3.54909e-07
-4.33094e-07
-2.42121e-07
-3.32403e-07
6.60419e-07
-3.28016e-07
6.39696e-07
8.96398e-08
-7.29336e-07
-4.73772e-07
4.78435e-07
-2.43372e-07
-4.50872e-07
6.08796e-07
9.5054e-08
-7.0385e-07
6.86574e-07
-2.24633e-07
-3.57075e-08
4.65541e-07
-4.29833e-07
-5.27261e-07
4.91553e-07
-2.38913e-07
7.8769e-07
-6.23307e-07
1.79017e-07
4.4429e-07
2.75339e-07
-6.25664e-07
3.50325e-07
5.28423e-07
-4.96396e-09
-5.23459e-07
-2.82912e-07
-3.85286e-07
6.68198e-07
5.08624e-07
-3.52035e-08
-4.73421e-07
-4.26872e-07
3.72289e-07
4.6478e-07
2.36276e-08
7.04379e-07
-1.655e-08
-6.87829e-07
-2.69194e-07
6.79146e-07
-4.09952e-07
-7.13854e-07
1.83644e-07
-5.34609e-07
2.92855e-07
6.78557e-07
-6.1167e-07
-6.68873e-08
-5.06859e-07
4.63793e-07
4.58222e-07
-6.44875e-07
1.86653e-07
-6.71433e-07
2.88663e-07
6.03109e-07
-2.90605e-07
-1.82101e-07
-4.51721e-07
6.33822e-07
3.50431e-07
1.86473e-07
-5.36904e-07
-5.73794e-08
6.30501e-07
6.03097e-07
9.96588e-08
1.47647e-07
5.71927e-07
-7.19574e-07
2.35432e-07
-4.90424e-07
-5.68745e-07
1.95134e-08
5.49232e-07
-6.48527e-07
7.97816e-08
-6.27715e-07
6.93183e-07
-6.54678e-08
3.98671e-07
1.75687e-07
-5.74358e-07
-6.12517e-07
5.4643e-07
6.60873e-08
1.92383e-07
4.50417e-07
4.29836e-07
-6.42494e-07
2.12658e-07
3.46318e-07
3.32239e-07
-5.61319e-07
-1.98928e-07
-5.55322e-07
6.60342e-07
-1.05019e-07
2.26546e-07
3.60553e-07
-5.31945e-08
5.9337e-07
5.77563e-07
-1.16917e-07
-4.60647e-07
-2.75675e-07
-3.07296e-07
2.93966e-07
-5.91175e-07
2.97209e-07
-9.48493e-08
-3.33014e-07
7.83443e-07
-4.5043e-07
4.42836e-07
-6.47671e-07
2.04835e-07
3.56072e-07
-7.08121e-07
5.84829e-07
-2.28756e-07
5.51734e-07
-1.16057e-08
-5.09218e-07
6.00444e-07
-6.89556e-07
3.89157e-07
3.004e-07
-5.86198e-07
5.5784e-07
6.96811e-07
-6.96811e-07
-5.13331e-07
-4.25946e-08
5.55926e-07
-3.86554e-07
6.795e-07
-2.92947e-07
-3.69149e-07
6.83752e-07
6.44076e-07
-3.15591e-07
-3.28485e-07
4.33148e-07
3.11841e-07
-2.95363e-07
6.13343e-07
-3.1798e-07
6.50147e-07
-3.97641e-07
-2.52506e-07
-2.23721e-07
-3.38587e-07
5.62307e-07
3.45423e-07
2.79577e-07
-1.02734e-07
5.53454e-07
-2.52138e-07
-4.25885e-07
5.162e-07
-4.53848e-07
-1.06652e-07
-5.60994e-07
-1.45261e-07
2.79379e-07
4.24695e-07
-1.69201e-08
-5.83568e-07
6.00217e-07
-3.16102e-08
2.19432e-07
3.80785e-07
-6.46734e-07
3.85927e-07
6.88831e-08
-4.84731e-07
4.15848e-07
4.98793e-07
3.03561e-08
4.03542e-07
-6.83948e-07
-2.23995e-07
6.27537e-07
5.69897e-07
9.11554e-08
4.61768e-07
-5.52923e-07
-4.82359e-07
5.73515e-07
6.10816e-07
-5.61538e-07
-4.92776e-08
5.14322e-07
2.13087e-07
-7.12364e-07
-3.33145e-08
-3.52838e-07
-3.5885e-07
4.82705e-07
-4.91203e-07
8.49783e-09
-6.58465e-07
5.29709e-07
-1.31944e-07
5.31025e-07
5.47878e-07
-2.23499e-08
-5.25528e-07
-3.67531e-07
-4.00151e-07
-7.18706e-07
2.76814e-07
-6.21663e-07
1.428e-07
4.78863e-07
-6.371e-07
1.54373e-08
6.30099e-07
8.80483e-09
-5.51489e-07
2.64966e-07
2.86522e-07
-6.81732e-07
4.6169e-08
6.35563e-07
-5.66687e-07
1.51349e-07
4.15338e-07
-3.46339e-07
-3.65973e-07
7.12312e-07
-3.04019e-07
-4.7452e-07
3.14508e-07
3.18953e-07
-3.76297e-08
4.84277e-07
-4.46647e-07
5.47794e-07
-5.85423e-07
-6.22186e-07
1.39322e-07
4.82864e-07
-4.7974e-07
6.45904e-07
-5.02231e-07
-1.8469e-07
6.86921e-07
-5.44049e-07
1.25776e-07
4.18273e-07
-6.99612e-07
3.43319e-08
6.6528e-07
-1.82874e-07
-5.16737e-07
-3.76001e-07
-1.45384e-07
5.21385e-07
-4.00416e-07
7.4545e-07
4.65681e-07
2.24693e-07
-6.90374e-07
6.23758e-07