/*--------------------------------*- C++ -*----------------------------------*\
  =========                 |
  \\      /  F ield         | OpenFOAM: The Open Source CFD Toolbox
   \\    /   O peration     | Website:  https://openfoam.org
    \\  /    A nd           | Version:  7
     \\/     M anipulation  |
\*---------------------------------------------------------------------------*/
FoamFile
{
    version     2.0;
    format      ascii;
    class       volVectorField;
    location    "9";
    object      U;
}
// * * * * * * * * * * * * * * * * * * * * * * * * * * * * * * * * * * * * * //

dimensions      [0 1 -1 0 0 0 0];

internalField   nonuniform List<vector> 
13182
(
(0.500078 7.17654e-05 6.13002e-20)
(0.498314 -0.00126775 0)
(0.496099 0.00382179 2.09229e-19)
(0.499875 0.000183843 -4.76944e-19)
(0.50099 -0.00226173 2.2959e-20)
(0.497594 -9.08451e-05 2.38081e-19)
(0.497821 -0.000542751 4.58709e-19)
(0.499529 -0.000221122 -5.32972e-19)
(0.500015 0.000170376 -2.75962e-19)
(0.48461 0.00145583 2.54959e-19)
(0.486641 7.32329e-05 0)
(0.500933 -0.000282983 -1.77297e-21)
(0.500531 0.000411634 -2.7705e-20)
(0.497759 0.000404668 -5.26484e-19)
(0.497839 -0.000435369 0)
(0.501553 -0.000311528 2.3525e-19)
(0.500068 0.000291293 -1.32946e-19)
(0.500017 -0.000618708 0)
(0.497905 -0.000489012 -4.58829e-19)
(0.497052 -0.000895219 0)
(0.497853 0.00350346 -2.05312e-19)
(0.498044 -0.000303288 0)
(0.500333 0.000474965 1.47464e-20)
(0.496044 0.0012014 8.52805e-19)
(0.499208 -0.000967186 5.06338e-20)
(0.49697 -0.00188768 0)
(0.499695 -0.000920697 0)
(0.498039 0.00150112 0)
(0.493659 0.000455543 8.10445e-20)
(0.500079 -0.000628784 -8.47955e-19)
(0.500005 -0.000719865 0)
(0.500026 0.000103037 5.00409e-19)
(0.501182 -0.00045858 -1.12797e-19)
(0.495433 -0.00191697 1.17701e-19)
(0.496747 -0.00498651 -3.29572e-19)
(0.499011 -0.00277773 0)
(0.499949 -9.24174e-05 0)
(0.495254 0.00240251 -3.54231e-19)
(0.493313 0.00141167 0)
(0.499789 0.000719634 -2.49129e-19)
(0.499503 -0.00466265 -7.31357e-21)
(0.48838 0.00578457 5.61421e-20)
(0.493548 -0.000351052 2.04064e-19)
(0.491178 -0.00191785 -6.17126e-20)
(0.497084 -0.000817042 -3.00789e-20)
(0.497511 -0.00506295 0)
(0.499958 0.000489367 5.74008e-19)
(0.488999 0.00301491 0)
(0.494686 0.00182378 1.5628e-19)
(0.499506 9.06319e-06 0)
(0.498816 0.00186463 0)
(0.497452 0.00284238 0)
(0.498379 0.000742564 1.25689e-19)
(0.499596 -0.000160664 2.00639e-19)
(0.500831 0.000693809 0)
(0.500091 -0.000310414 0)
(0.501201 0.000267232 0)
(0.499691 0.000241634 -2.02055e-19)
(0.501935 0.000761817 -2.39552e-19)
(0.499929 -0.000715733 0)
(0.499814 -6.44342e-05 0)
(0.499635 -0.000109596 5.53131e-19)
(0.500663 0.000240455 -2.28214e-19)
(0.498298 0.0027519 3.99419e-19)
(0.495919 -0.00200601 4.54826e-19)
(0.497149 -0.00241452 -8.25653e-19)
(0.501914 0.00124375 -2.27415e-19)
(0.50043 -0.00141847 1.07628e-19)
(0.499451 0.00103995 -4.73527e-20)
(0.501088 -0.000738833 -2.22217e-19)
(0.497987 0.00198819 -1.15851e-20)
(0.498762 -0.000120417 -1.39286e-19)
(0.498249 -0.000568499 2.92183e-19)
(0.498905 -0.00410627 0)
(0.496408 -0.00268483 8.09557e-20)
(0.499806 -0.00023558 5.51631e-19)
(0.499467 -0.000410055 0)
(0.49921 -0.000258342 1.49982e-19)
(0.499706 0.000123744 5.63068e-19)
(0.498701 0.000928783 -9.86577e-19)
(0.499957 -0.000319126 -1.37216e-19)
(0.497842 -0.00272384 2.40064e-19)
(0.498748 -0.00041655 1.29149e-19)
(0.498573 0.000781057 -1.17514e-19)
(0.496302 0.000155711 -9.6281e-20)
(0.49244 -0.000669296 0)
(0.490647 0.000654665 0)
(0.501742 0.00255145 -2.47637e-19)
(0.499539 -0.00103154 0)
(0.50137 -0.00106998 -2.09233e-19)
(0.49988 0.00193462 0)
(0.500008 -0.000449068 -2.96551e-19)
(0.497467 -0.000465458 1.20961e-19)
(0.505323 0.00417106 2.73588e-19)
(0.499785 -0.00127539 -5.09093e-19)
(0.49979 1.33084e-05 0)
(0.495897 0.00358051 1.95369e-19)
(0.501874 -2.76743e-06 1.28305e-19)
(0.500192 -0.000652488 0)
(0.499203 -0.00100949 0)
(0.49677 -0.00096893 -1.37771e-19)
(0.494458 0.00250555 0)
(0.497113 -0.000430179 0)
(0.498302 -0.000307556 -4.59806e-19)
(0.498679 -0.000789276 -2.63847e-19)
(0.49993 -0.000747192 -2.08148e-19)
(0.49479 -0.000951333 -9.7375e-20)
(0.483199 0.00370001 -9.95209e-20)
(0.499697 -0.000308111 -6.90722e-19)
(0.495185 -0.00223807 0)
(0.49877 -0.000646946 6.2217e-19)
(0.492251 -0.00156544 1.27102e-19)
(0.486388 -0.00100649 -3.08398e-19)
(0.497873 -0.000113054 -2.66688e-21)
(0.498366 0.00092061 1.90079e-19)
(0.495179 0.000120585 -3.33433e-19)
(0.499291 -0.000395726 3.47985e-19)
(0.49713 0.00707698 6.9358e-20)
(0.498561 0.00235233 3.37493e-19)
(0.499514 0.00209036 1.57014e-21)
(0.500482 0.000921298 0)
(0.491824 -0.000469844 -2.43554e-19)
(0.499566 -0.000448962 0)
(0.498104 -2.24142e-05 -4.69525e-19)
(0.496374 7.20814e-05 -1.96172e-19)
(0.496094 0.000700353 0)
(0.499321 0.000422254 -2.27352e-19)
(0.500276 7.33286e-05 1.2718e-19)
(0.498419 2.73358e-06 -5.21566e-19)
(0.50252 0.00315368 0)
(0.495062 0.00036473 6.63954e-20)
(0.497851 -9.86006e-05 0)
(0.499175 0.000107714 0)
(0.495168 0.000984341 -1.44429e-19)
(0.497516 0.000343314 -7.08074e-19)
(0.500093 5.58685e-05 4.76754e-19)
(0.499438 0.000130325 3.69454e-20)
(0.500761 -0.000295025 -1.15842e-19)
(0.498732 -1.14508e-05 0)
(0.498461 -0.000941 8.72649e-19)
(0.497062 -0.00380506 4.08262e-19)
(0.485233 -0.00647709 0)
(0.491483 0.00490622 1.00276e-19)
(0.494302 0.000916069 0)
(0.493024 0.002155 2.30978e-19)
(0.499215 -4.41802e-05 -7.72946e-22)
(0.497217 -0.00111972 0)
(0.501035 0.00180825 0)
(0.500134 -0.000457171 -2.77735e-19)
(0.495621 0.00361873 0)
(0.497424 0.00429094 -5.62573e-20)
(0.496983 -0.00234187 1.86772e-19)
(0.499352 -0.00182322 0)
(0.496425 -0.00103922 1.61913e-19)
(0.502655 0.000646204 3.4938e-19)
(0.501028 0.000648088 3.97274e-19)
(0.493417 0.000983415 0)
(0.502331 -0.00651973 5.17585e-23)
(0.495814 -0.00298605 -5.41679e-20)
(0.496679 -0.000492669 0)
(0.496738 -0.000127788 -2.11614e-19)
(0.495099 0.00215018 -3.48704e-19)
(0.500152 0.0022948 1.53104e-19)
(0.500652 -0.000412585 -5.33515e-19)
(0.498766 -4.30155e-05 -9.90449e-22)
(0.500344 -0.000299381 1.11726e-21)
(0.499483 -0.000482303 2.96588e-19)
(0.497392 -0.00317777 -4.3484e-19)
(0.497238 -0.00139188 9.83909e-20)
(0.498105 0.00194059 0)
(0.491969 0.000607016 0)
(0.495975 0.0013121 -2.63092e-19)
(0.498319 0.0009828 0)
(0.497082 -0.00262194 -2.46766e-20)
(0.503506 -0.00207101 1.66229e-19)
(0.501138 0.000370749 4.60758e-19)
(0.494025 0.00471597 0)
(0.494586 0.00148714 -1.67965e-19)
(0.498648 0.00015374 0)
(0.498815 -0.000590603 0)
(0.49984 -0.00102985 -2.04457e-19)
(0.489373 0.0027008 -1.74308e-19)
(0.49998 -0.000275982 0)
(0.498846 -6.99268e-05 7.15504e-19)
(0.503559 -0.000107605 -1.13523e-19)
(0.494407 -0.00169297 -1.75777e-19)
(0.49314 0.000736325 3.39253e-19)
(0.499765 -0.00018706 -5.08493e-19)
(0.503004 -0.000551728 2.95324e-19)
(0.498474 0.000113876 2.15723e-19)
(0.503806 -0.000763937 -1.42159e-19)
(0.499875 -0.000369523 -3.99176e-24)
(0.503845 -2.41673e-05 -1.39193e-19)
(0.500861 -5.11159e-05 0)
(0.499753 -0.000416533 5.78033e-19)
(0.50301 0.00187116 1.71421e-19)
(0.493952 0.00181227 3.25093e-19)
(0.501305 0.00083427 1.1214e-19)
(0.498288 0.000630974 3.97162e-19)
(0.501391 -0.00105888 1.09136e-19)
(0.499953 0.000925965 -4.89059e-19)
(0.498896 0.00041831 7.96725e-19)
(0.500812 0.00198163 2.80796e-20)
(0.499676 -0.000303297 0)
(0.494817 -0.00123376 -2.15675e-21)
(0.50459 -0.00277603 8.35618e-20)
(0.497397 -0.00307541 -1.05338e-19)
(0.487169 0.00220274 0)
(0.499864 -0.000136307 3.4294e-19)
(0.497522 -0.00233782 -1.30355e-19)
(0.496545 0.00134958 0)
(0.485168 -0.000534287 0)
(0.500069 0.000452887 -4.88204e-19)
(0.501275 -0.000109341 5.94465e-19)
(0.496077 -0.000414905 0)
(0.499212 0.000427895 0)
(0.498431 0.00103298 3.97813e-19)
(0.49987 -0.000170447 -5.90709e-19)
(0.499927 0.000835118 -4.12483e-19)
(0.500896 -0.00173728 -1.89141e-20)
(0.498047 -0.00212709 0)
(0.495883 -0.000976879 0)
(0.500638 -0.00215573 5.8985e-20)
(0.498173 0.000750066 1.29672e-19)
(0.496415 0.00179882 1.0196e-19)
(0.499878 -1.01611e-05 -6.00492e-19)
(0.499568 4.47037e-05 2.5182e-19)
(0.50003 -0.000830756 0)
(0.500281 -0.000208783 2.74776e-19)
(0.499066 -0.000110182 -9.74777e-19)
(0.499989 -0.000197297 2.66243e-19)
(0.497757 -0.00155638 -2.61931e-19)
(0.497493 -0.000925476 2.61087e-19)
(0.497908 0.000498257 0)
(0.499287 -0.000831195 -6.42569e-20)
(0.499941 4.01958e-05 0)
(0.49368 0.00297843 -1.44335e-21)
(0.498063 -9.87689e-05 4.9959e-19)
(0.497625 -0.000222134 0)
(0.500941 -0.00165813 -1.98689e-21)
(0.494311 -0.00135057 1.33202e-19)
(0.493968 0.00175739 -6.99391e-20)
(0.499485 0.000382183 -2.61765e-19)
(0.500152 -9.87828e-05 2.19669e-19)
(0.500026 0.000430906 -7.15627e-19)
(0.499042 -0.00124007 2.44207e-19)
(0.500093 0.00195258 4.18822e-19)
(0.496856 0.000515215 -8.1348e-19)
(0.500077 1.40541e-06 -2.91381e-20)
(0.497953 -0.000287483 2.05646e-19)
(0.500596 0.000335506 1.15897e-19)
(0.499554 0.00155146 -2.20501e-19)
(0.499436 0.000945908 5.80172e-19)
(0.499192 0.000153609 -1.78318e-19)
(0.49707 -0.00665 -8.35709e-20)
(0.499769 -2.69844e-05 -2.43922e-19)
(0.493775 -0.000629852 -7.93837e-20)
(0.487257 -0.00119582 -5.54271e-20)
(0.490805 0.000755616 -1.18844e-20)
(0.495695 -0.000256048 -7.65185e-20)
(0.496284 -0.00223842 0)
(0.500049 0.000160573 7.42586e-19)
(0.499434 0.000140101 2.63953e-19)
(0.500101 -0.000218658 0)
(0.501347 -0.00184598 -2.49023e-19)
(0.496733 0.00129565 1.76105e-19)
(0.502852 0.00433333 1.18603e-19)
(0.498515 0.000124189 0)
(0.499633 -0.000572485 -4.28256e-19)
(0.499926 -0.000427067 -3.342e-20)
(0.499508 -0.00016375 -5.16449e-19)
(0.499064 0.00011952 -5.56178e-19)
(0.498054 0.000640223 5.09147e-19)
(0.498712 0.000565759 0)
(0.499689 -0.000483089 0)
(0.495728 0.00385279 -3.18098e-19)
(0.498819 -0.000122875 5.24949e-19)
(0.499166 -0.000188902 -7.42362e-19)
(0.49864 0.000485526 0)
(0.499938 -0.000493945 0)
(0.499919 -0.000198352 -5.63189e-19)
(0.502881 0.00217142 1.66148e-19)
(0.49938 0.000757215 0)
(0.49899 0.000723039 3.27677e-19)
(0.500435 0.00061022 -6.04642e-20)
(0.497684 -0.00339007 4.41693e-20)
(0.496743 0.00243468 3.12151e-19)
(0.499876 -0.000403722 -5.33491e-19)
(0.494681 -0.0044578 1.10483e-19)
(0.50029 -0.000521051 -3.00287e-19)
(0.499608 0.000749236 1.4447e-19)
(0.489478 -0.000925715 -1.21181e-19)
(0.500128 0.000581912 8.70963e-20)
(0.496512 -0.00192668 -1.14748e-19)
(0.499938 -0.00091514 1.32236e-19)
(0.499898 1.38249e-05 2.03889e-19)
(0.499603 -0.000131038 0)
(0.499665 -0.000202858 0)
(0.499648 0.000265136 -4.27307e-19)
(0.499694 0.000155639 -1.44132e-19)
(0.504381 -0.000725748 1.96415e-19)
(0.499154 0.00249202 5.97589e-19)
(0.499701 0.000591988 2.50714e-19)
(0.500162 0.000621993 1.32169e-19)
(0.492558 0.00576137 0)
(0.508619 0.000656204 -1.67348e-19)
(0.498407 -0.000121766 4.40805e-19)
(0.497452 -0.000746598 2.33798e-19)
(0.499923 0.00042307 5.6724e-19)
(0.504268 0.00114236 1.24106e-22)
(0.500247 0.000518002 0)
(0.500365 -3.83817e-05 -2.55019e-19)
(0.500644 0.000444531 -1.53209e-19)
(0.50037 -0.000862998 5.4163e-19)
(0.499992 -0.000372094 0)
(0.499795 0.000214658 -6.10204e-19)
(0.499945 -9.53923e-05 5.19147e-19)
(0.499393 -0.000806235 0)
(0.500065 -0.000284243 1.00249e-18)
(0.497024 -0.00187382 1.5053e-19)
(0.501717 -0.00218025 -2.45246e-19)
(0.50088 -0.000679653 9.12684e-20)
(0.498968 -0.000853011 5.16976e-19)
(0.499321 0.000149079 -2.55154e-19)
(0.498692 -0.00043077 4.12753e-19)
(0.499399 -2.09792e-05 -5.28434e-19)
(0.498931 -0.00240975 1.61632e-21)
(0.500116 -0.000658869 0)
(0.500277 0.00411523 0)
(0.499013 -0.000853205 -1.66797e-19)
(0.496792 -0.0015145 0)
(0.49728 -0.00154155 0)
(0.49733 0.00112685 0)
(0.493423 0.000272334 -2.88794e-19)
(0.495674 0.00115701 0)
(0.499574 0.000901471 2.87735e-20)
(0.498652 -0.00179626 -4.38543e-19)
(0.501147 -0.000230619 -2.35985e-19)
(0.500376 -0.000298421 0)
(0.489973 0.00145933 1.35158e-19)
(0.496198 0.00434562 3.72592e-20)
(0.500113 0.000458519 0)
(0.500265 0.000152242 -7.22557e-20)
(0.494637 -0.0031859 0)
(0.490312 0.00287906 2.52744e-19)
(0.499536 -0.000321243 0)
(0.499174 0.00017098 4.48931e-19)
(0.498409 0.000382387 0)
(0.499753 0.000934922 -4.90339e-19)
(0.494902 -0.000459517 -4.71442e-19)
(0.49604 -0.000967154 4.43349e-19)
(0.499559 -0.000405907 -7.94331e-19)
(0.500745 0.00264997 8.73906e-20)
(0.498665 -4.09651e-05 4.90485e-19)
(0.497935 -0.000611714 -7.04007e-19)
(0.499725 -0.000240146 -2.34175e-19)
(0.499798 0.000552331 -3.91195e-19)
(0.49938 0.000939135 -4.07619e-19)
(0.499969 4.43729e-05 -1.35153e-19)
(0.500943 -9.83284e-05 5.12686e-19)
(0.500299 0.00100048 6.83156e-20)
(0.499793 -0.000424075 0)
(0.497786 0.00152699 -8.6962e-20)
(0.497906 -0.000212454 1.44986e-19)
(0.500307 -0.00509092 -2.20989e-19)
(0.49763 7.15503e-05 0)
(0.500134 -0.000596753 3.54108e-19)
(0.498433 -0.000639903 5.53198e-19)
(0.499686 -0.000160682 3.13379e-23)
(0.499008 -0.001307 0)
(0.499998 -9.27909e-05 -2.68476e-19)
(0.499574 -0.000896589 2.6459e-19)
(0.497638 0.00166845 -7.05545e-20)
(0.497101 -0.00107612 -9.1781e-20)
(0.500403 0.000505536 -6.17893e-19)
(0.499702 -0.000301717 2.03529e-19)
(0.501178 -0.000545828 -4.05965e-19)
(0.496771 -0.000195844 -1.1852e-19)
(0.489325 -0.00353447 -1.03246e-20)
(0.495868 -0.00306735 6.01586e-20)
(0.498836 0.00290774 -4.73613e-19)
(0.496641 -0.00287597 -2.63074e-19)
(0.499776 -0.000301395 -5.21233e-19)
(0.49801 -0.000552259 -2.48982e-19)
(0.500332 -0.00119906 -1.56272e-19)
(0.497829 0.00239652 -6.18759e-21)
(0.495969 2.24559e-06 -3.23129e-19)
(0.499245 0.000136399 -1.34333e-19)
(0.500184 -0.00304351 1.19722e-20)
(0.502609 -0.000849015 3.47368e-21)
(0.499944 -0.00157983 0)
(0.50028 1.01044e-05 -3.58097e-20)
(0.50005 0.000150048 5.46325e-19)
(0.500299 -0.00197253 -2.21231e-19)
(0.498235 1.62807e-05 -1.94547e-19)
(0.500742 0.000288445 0)
(0.499877 -0.000132194 0)
(0.497086 0.000243751 1.32166e-19)
(0.501374 0.00395876 -4.5204e-19)
(0.498565 -0.000570642 1.44487e-19)
(0.494135 0.00328139 0)
(0.496754 0.00279551 1.29248e-19)
(0.498917 -1.01918e-05 -1.13224e-19)
(0.499864 -0.000164715 1.1158e-19)
(0.49956 -0.000722206 3.7095e-19)
(0.497592 0.00169857 -3.3734e-19)
(0.497873 0.000837913 2.35663e-19)
(0.49969 -2.78821e-05 -5.42705e-19)
(0.499768 0.000102589 0)
(0.50026 0.00111608 3.80376e-19)
(0.499449 -0.00291845 4.65961e-19)
(0.500071 -0.00219744 0)
(0.498212 -0.00264249 -3.19075e-20)
(0.498192 -0.00120041 1.02126e-19)
(0.500227 2.56682e-05 0)
(0.498155 0.000751989 -9.29676e-20)
(0.500018 -9.0356e-06 0)
(0.486016 -0.00489022 9.3934e-21)
(0.498517 0.000863286 0)
(0.498666 0.00156111 0)
(0.496846 -0.00115531 0)
(0.497985 -0.00106331 1.03876e-18)
(0.499773 -0.000629722 -6.72706e-20)
(0.499801 -0.000621204 0)
(0.500316 -0.000174688 0)
(0.489928 -0.00330117 -2.42643e-19)
(0.49896 0.000773294 -2.62495e-19)
(0.498259 -3.67611e-05 -2.0272e-19)
(0.497897 -0.000550702 0)
(0.499678 -0.000925619 2.48843e-19)
(0.494812 -0.00357396 3.08639e-20)
(0.497227 -0.00164347 -4.40693e-19)
(0.500386 -0.00131466 -5.78882e-20)
(0.499211 7.01733e-05 -5.23967e-19)
(0.497882 -0.000503762 -2.83851e-19)
(0.496577 0.00364825 0)
(0.499929 -0.000114044 -2.34955e-19)
(0.499109 -0.000152483 -8.89633e-20)
(0.500321 0.00331788 -2.32895e-19)
(0.498711 -0.00190918 0)
(0.499628 0.00107307 1.15653e-19)
(0.494842 -0.00154251 3.79629e-19)
(0.498307 0.00091679 0)
(0.500498 -0.000691555 2.50897e-19)
(0.50268 0.00171583 -6.24227e-19)
(0.499919 4.96771e-05 0)
(0.488766 0.00394578 0)
(0.499916 4.34816e-05 0)
(0.501216 -0.00210213 0)
(0.499997 -0.000277675 -2.72593e-19)
(0.500327 -4.92885e-05 4.97931e-19)
(0.501109 -0.00178665 -4.95803e-19)
(0.502562 0.00162368 -1.55536e-19)
(0.499642 -7.00564e-05 -1.42791e-19)
(0.499447 0.00457022 -7.11982e-20)
(0.496928 0.00124777 -4.49353e-19)
(0.500239 -0.00014578 0)
(0.499817 -0.000396565 0)
(0.500246 -0.000413528 0)
(0.499227 0.000440249 -6.89982e-19)
(0.500066 1.69414e-05 2.56588e-19)
(0.499983 2.5352e-05 -6.14099e-20)
(0.505839 0.00477184 -4.85098e-21)
(0.499257 -0.000321831 -4.27829e-19)
(0.500052 0.000425078 0)
(0.500092 0.000170044 -5.98317e-19)
(0.497315 -0.00109143 1.90946e-19)
(0.501876 0.00156201 9.37203e-20)
(0.500039 -9.18904e-05 -4.84939e-22)
(0.498596 -4.08732e-06 0)
(0.499303 0.000602107 4.1836e-19)
(0.49567 0.00919514 0)
(0.499968 0.000122334 5.4075e-19)
(0.498869 0.000159842 0)
(0.495916 -0.00017036 9.99e-20)
(0.49357 -0.00349453 -1.87573e-19)
(0.500135 -0.000498569 1.44462e-19)
(0.497599 0.00420886 3.56104e-20)
(0.500161 -0.000563098 -1.42662e-19)
(0.499616 -0.000659064 5.35303e-19)
(0.499799 -2.06087e-05 0)
(0.499752 -0.000377642 5.00698e-19)
(0.497951 0.00110945 0)
(0.499611 -0.000285619 0)
(0.501232 -0.00138524 4.49754e-20)
(0.49656 -0.0067219 1.3003e-19)
(0.499976 0.00081996 6.42468e-19)
(0.495468 0.000894134 -4.52855e-19)
(0.496689 0.00060035 0)
(0.483214 0.00862789 -5.0241e-20)
(0.499466 0.000282665 0)
(0.498307 0.00107225 -2.11886e-19)
(0.499947 -1.90853e-05 2.63335e-19)
(0.504771 -0.00277091 -2.0576e-19)
(0.499982 -0.000277983 0)
(0.505824 -0.00275099 -1.69332e-19)
(0.495246 0.00167697 3.43844e-19)
(0.494176 0.00209699 1.09103e-20)
(0.499745 -0.000963783 0)
(0.500742 0.00072298 4.12497e-19)
(0.499647 -0.00014672 0)
(0.500318 -0.000104979 -2.7978e-19)
(0.499428 -0.00017251 -1.38619e-19)
(0.491783 0.00014876 0)
(0.493979 -0.00202039 1.41677e-19)
(0.49915 -0.000726518 6.15849e-20)
(0.500116 0.000451429 0)
(0.499476 -0.000736896 0)
(0.499653 0.00154011 5.27858e-19)
(0.492925 -0.00188702 -1.82841e-19)
(0.494249 0.000621927 -1.79416e-19)
(0.504083 0.00114467 0)
(0.497746 -0.000134277 0)
(0.496022 0.00342854 -4.62031e-19)
(0.496576 -0.00089772 -4.2988e-19)
(0.497605 -0.000473261 2.22579e-21)
(0.49981 0.00069582 -3.13619e-19)
(0.500133 4.37218e-05 0)
(0.501137 -0.00121538 2.5424e-19)
(0.501654 0.00821729 1.49054e-19)
(0.499587 -0.000309949 5.01629e-19)
(0.499141 -7.88369e-05 0)
(0.498787 -0.00104664 1.29005e-19)
(0.4995 -0.00406576 -7.99914e-20)
(0.497989 0.00178351 1.75902e-19)
(0.497616 -0.000485785 0)
(0.499905 -0.000445787 -2.34685e-19)
(0.500677 0.00134712 0)
(0.500053 -0.000168319 0)
(0.4965 -0.00148793 2.1179e-19)
(0.499727 -0.000524165 -2.05925e-19)
(0.500171 0.000674658 4.08524e-19)
(0.49647 0.000543793 -2.76742e-19)
(0.500318 0.000855427 -2.41678e-19)
(0.490571 0.00158134 2.38783e-20)
(0.497343 -0.000249747 2.40657e-19)
(0.499151 -0.00104065 -2.51896e-19)
(0.501818 0.00456946 2.69191e-19)
(0.496944 -0.00083579 0)
(0.498421 -0.00101695 0)
(0.498672 -1.90992e-05 0)
(0.498674 0.000114357 2.61667e-19)
(0.499845 -0.000164783 2.9471e-19)
(0.492207 0.000867637 9.04427e-20)
(0.500509 7.32737e-05 5.33845e-19)
(0.499276 0.000509515 9.81251e-20)
(0.495036 -0.00161865 -2.04203e-19)
(0.49972 -7.47065e-06 4.90102e-19)
(0.495308 -0.00298919 -3.03726e-19)
(0.49973 -0.000587979 5.10677e-19)
(0.500089 -0.000449207 1.33029e-19)
(0.499033 -0.00113414 -2.60027e-19)
(0.498399 -0.000714194 0)
(0.49911 -0.000532426 4.02061e-19)
(0.497985 -0.00110453 1.44403e-19)
(0.499446 0.000104494 8.84899e-21)
(0.500425 -2.68862e-05 -1.36672e-19)
(0.500356 0.000770518 -1.24684e-19)
(0.49825 0.000275507 6.64146e-19)
(0.499314 -0.000452501 -6.73395e-19)
(0.493345 -0.00112064 3.11239e-19)
(0.499936 -0.000735292 0)
(0.499137 -0.000837911 6.41665e-19)
(0.498504 -0.000943065 2.29553e-19)
(0.499902 8.69778e-05 -5.05176e-19)
(0.49913 0.000803878 -5.05325e-19)
(0.498861 -0.00114211 2.13665e-19)
(0.494855 0.00429218 -7.29886e-20)
(0.49402 0.00477826 -2.57592e-19)
(0.498523 -7.22751e-06 0)
(0.497581 0.00107697 5.70376e-20)
(0.494411 -0.00433138 -2.65915e-19)
(0.495363 -0.00173451 3.01101e-19)
(0.499239 -0.0010649 2.33053e-19)
(0.499892 1.58606e-05 -5.00342e-19)
(0.500563 -4.27729e-05 5.48957e-19)
(0.499964 0.000758366 0)
(0.498627 0.000342759 -2.48648e-19)
(0.500887 0.000391087 3.02199e-19)
(0.49869 0.00305224 -1.7766e-19)
(0.498011 0.000691222 -4.62442e-19)
(0.494574 0.00501419 0)
(0.499955 -0.000100016 -7.61142e-19)
(0.499406 0.00103139 1.51308e-21)
(0.497953 0.0016211 2.58888e-19)
(0.496044 -0.00166969 1.26277e-19)
(0.500179 0.000178824 0)
(0.499449 -0.000460974 -5.04189e-19)
(0.49929 -0.00131392 5.45393e-19)
(0.495608 -0.00182679 3.48392e-19)
(0.498336 -0.00195864 3.4443e-19)
(0.497628 -0.00231283 0)
(0.49933 0.000483465 -4.57838e-19)
(0.501742 -0.00128955 4.52289e-19)
(0.499293 -0.000825979 6.98029e-19)
(0.497562 0.00271445 2.78824e-19)
(0.491956 0.000248054 1.94541e-19)
(0.499801 -0.000124662 0)
(0.500065 -0.000186834 -3.65612e-19)
(0.500164 0.000284151 -6.32612e-19)
(0.498569 6.8308e-05 -5.62783e-19)
(0.499898 -0.000240134 0)
(0.499825 -0.000584192 0)
(0.500448 2.34356e-05 4.01574e-19)
(0.494 0.0046026 -6.71024e-20)
(0.49523 0.000564928 -1.75423e-21)
(0.491975 0.00175079 7.09225e-20)
(0.496561 0.000921799 5.68652e-19)
(0.499914 -0.000353122 2.73589e-19)
(0.499799 -0.000138343 0)
(0.499871 -0.000274819 5.79288e-19)
(0.497547 -0.000406223 1.37508e-19)
(0.500388 -0.000847914 -2.40444e-19)
(0.492913 -0.00119023 2.25534e-19)
(0.494587 -0.00229905 -1.75775e-19)
(0.502127 0.00527219 -3.18891e-20)
(0.496126 0.00440207 3.18777e-19)
(0.502052 -0.000639109 -2.20069e-19)
(0.498656 -0.000601016 -9.94602e-20)
(0.500066 0.00101916 -1.21118e-19)
(0.499503 0.000249551 5.37824e-19)
(0.491552 0.00455442 0)
(0.499037 0.000685305 0)
(0.500347 -0.000387185 2.79899e-19)
(0.492796 0.00854925 -2.26549e-19)
(0.495979 0.00599958 3.46576e-19)
(0.499954 -0.000170485 5.22101e-19)
(0.49829 -0.000599435 5.61424e-19)
(0.504917 -0.00279311 0)
(0.499737 0.000645752 3.1061e-20)
(0.500022 -0.000278544 -1.42469e-19)
(0.500025 -7.55573e-05 0)
(0.49895 0.000877944 0)
(0.499991 0.00207944 -5.4109e-20)
(0.498224 0.000423178 0)
(0.50061 0.00416689 -2.85224e-19)
(0.498856 1.97565e-05 1.5233e-19)
(0.499021 -0.00051149 6.26154e-20)
(0.500313 -0.00020173 -2.16904e-19)
(0.499238 -0.000180081 1.53649e-21)
(0.500715 4.64007e-05 -2.72035e-19)
(0.498808 -0.00661388 0)
(0.499185 -0.00160523 4.65848e-19)
(0.500625 0.000784931 -4.96111e-19)
(0.499955 -7.02479e-05 4.06639e-22)
(0.498404 -0.000853646 4.69074e-20)
(0.495724 -2.98754e-05 0)
(0.499153 -0.000303552 1.43259e-19)
(0.498708 0.00308679 1.79426e-19)
(0.498874 -0.00208129 -5.11369e-20)
(0.499459 -0.000508405 2.86401e-19)
(0.500262 -0.000455221 -8.1051e-19)
(0.497199 0.000994327 -1.63214e-19)
(0.499836 -0.000203168 1.32206e-19)
(0.499862 -4.87021e-05 0)
(0.49837 -0.000624374 2.18124e-19)
(0.50008 -0.000299091 -2.85627e-19)
(0.499514 -0.000215775 -1.86395e-19)
(0.484031 0.00183052 1.24274e-20)
(0.506668 -0.00145968 8.18065e-20)
(0.499788 -0.000685271 7.9464e-19)
(0.501184 -0.000292802 0)
(0.494792 0.00303706 1.17908e-19)
(0.498653 0.000274714 -2.35389e-19)
(0.500148 -0.000325215 -4.91122e-19)
(0.499491 0.000974831 -4.69081e-19)
(0.50053 -0.000727007 -5.06713e-19)
(0.500173 -0.0010038 2.53087e-19)
(0.500016 0.000130925 0)
(0.498739 -0.000162247 2.17749e-19)
(0.500092 -6.01182e-05 0)
(0.498921 0.001227 0)
(0.500451 5.41044e-05 0)
(0.49942 6.73936e-05 4.26552e-19)
(0.499953 0.000569942 -3.02031e-20)
(0.49492 0.00231571 -8.5497e-20)
(0.499829 -8.58955e-05 1.12502e-19)
(0.499649 0.00046952 1.38352e-19)
(0.49708 -0.00556934 -2.25569e-19)
(0.499211 -5.39571e-06 -5.35027e-19)
(0.497774 0.00108699 -3.15181e-19)
(0.499694 0.000152494 -2.85519e-19)
(0.500223 -4.17432e-05 0)
(0.500586 -0.00183637 -2.87569e-19)
(0.499514 -0.00034117 -5.8703e-19)
(0.501716 -9.50288e-05 0)
(0.494863 -0.000278526 0)
(0.497884 0.000663774 0)
(0.500036 0.00271294 -6.59972e-20)
(0.500015 0.000185359 5.47467e-19)
(0.497398 0.0004844 -5.16072e-19)
(0.49941 0.000208378 7.20146e-19)
(0.498441 0.000294863 0)
(0.495997 0.000559193 3.10364e-19)
(0.499847 1.89737e-05 5.61645e-19)
(0.499797 -0.000138729 -4.63351e-19)
(0.498607 -0.00147424 0)
(0.496646 0.000198597 0)
(0.501187 -9.96587e-05 -2.42818e-19)
(0.498043 0.00331661 -1.42848e-19)
(0.499762 5.86762e-05 6.63187e-20)
(0.499841 -0.000163887 0)
(0.498862 0.000376961 -8.34346e-19)
(0.498396 -0.000694437 -5.5553e-19)
(0.501139 0.00373482 8.45655e-20)
(0.499836 0.00011967 0)
(0.498936 -0.000595934 0)
(0.498941 -0.000353186 2.52768e-19)
(0.498244 -0.000520738 9.08825e-20)
(0.497128 0.00112705 0)
(0.499697 -0.000497747 2.8323e-19)
(0.500325 0.000369404 -1.24633e-19)
(0.498073 -0.000323496 0)
(0.499127 -0.000384913 -2.71933e-19)
(0.490956 -0.00258864 2.72581e-19)
(0.493351 0.00235486 -3.06805e-19)
(0.499902 0.000289419 0)
(0.500298 0.000520237 -5.91044e-19)
(0.500208 0.000157667 0)
(0.498156 -0.0033341 1.69571e-20)
(0.492855 -0.00120071 0)
(0.499686 0.0035898 2.10179e-20)
(0.500149 -0.00012691 5.17429e-19)
(0.500502 0.00121344 -4.51401e-19)
(0.500036 -0.00034174 0)
(0.500022 -0.000326933 1.02588e-19)
(0.495785 0.00740659 0)
(0.495187 0.00152566 2.08784e-19)
(0.498965 -0.00154579 -2.71692e-19)
(0.500025 -0.000338683 5.76738e-19)
(0.499422 -0.00105398 4.87882e-19)
(0.496908 -0.00144565 2.40737e-19)
(0.498374 0.00097801 -2.25308e-19)
(0.499035 0.000682132 3.96741e-19)
(0.496962 -0.00178904 1.16339e-19)
(0.498565 0.000472689 3.46201e-19)
(0.499037 -0.000140624 -5.5749e-19)
(0.499632 1.15621e-05 0)
(0.496338 -0.000706059 5.0037e-19)
(0.496059 -0.00123669 6.28204e-19)
(0.495229 -0.000120931 -2.11701e-19)
(0.499507 0.000199825 2.71516e-19)
(0.500191 -0.000329677 2.1041e-19)
(0.498654 -0.00194652 0)
(0.500129 -8.42211e-05 0)
(0.501505 -0.00172627 3.77126e-19)
(0.49967 -0.00167617 -2.25071e-19)
(0.502032 -0.00109606 2.34872e-19)
(0.499537 0.000374388 -1.18845e-19)
(0.494308 6.31495e-05 -4.83512e-19)
(0.500221 9.98766e-05 4.77723e-19)
(0.489309 -0.00214499 0)
(0.498711 -0.000418272 0)
(0.500026 -0.00023663 -1.53285e-20)
(0.506752 -0.000999857 -4.06874e-21)
(0.499868 -6.9741e-05 -1.80464e-20)
(0.500821 0.00246735 0)
(0.500698 0.00039472 -4.60149e-22)
(0.500642 2.70293e-05 0)
(0.49476 -8.79318e-05 -1.0492e-19)
(0.499421 -0.000235014 5.76745e-19)
(0.500277 -6.15574e-06 -2.09111e-19)
(0.488708 -0.00198306 2.83254e-19)
(0.497381 -8.91839e-05 0)
(0.499462 -6.23314e-05 -6.8139e-20)
(0.500093 0.000303721 -1.44138e-19)
(0.503152 -0.00140162 4.28611e-19)
(0.498234 7.83967e-05 -1.23071e-19)
(0.499761 1.04776e-05 1.55243e-19)
(0.499569 -0.000202568 4.61536e-19)
(0.48767 -0.00309638 -4.27409e-20)
(0.494807 -0.00173366 1.01989e-19)
(0.499514 -0.000169238 -1.26888e-19)
(0.499395 0.000196249 1.13646e-19)
(0.500117 5.7875e-05 1.37082e-19)
(0.500008 9.39648e-05 4.96514e-19)
(0.49611 -0.00194227 -2.74243e-19)
(0.499331 -0.000226135 -4.16055e-19)
(0.499712 -1.34319e-05 5.92172e-19)
(0.500164 0.000141253 -7.5721e-19)
(0.499897 0.000269259 1.06915e-19)
(0.49238 0.00234532 1.79046e-19)
(0.500218 -0.000362558 5.05474e-19)
(0.490813 -0.0017906 4.74888e-19)
(0.496279 -0.00239208 2.48605e-21)
(0.488749 0.00440055 0)
(0.499956 2.43693e-05 5.51774e-19)
(0.498994 0.00131401 -2.75888e-19)
(0.497947 0.000341354 1.16713e-19)
(0.499796 -0.000885178 -1.71469e-19)
(0.497293 0.0018067 4.73745e-19)
(0.49901 0.00257365 1.55098e-19)
(0.498406 -0.000381372 -5.80674e-19)
(0.501256 -0.000890184 0)
(0.50149 -9.05338e-05 1.68704e-19)
(0.498302 0.00329062 -1.23158e-19)
(0.499809 0.000134326 0)
(0.500308 0.000861225 -8.60378e-19)
(0.499373 -2.02188e-06 2.48889e-19)
(0.495549 0.000612135 -1.42818e-19)
(0.493795 0.00276847 1.75713e-19)
(0.499795 -0.000104625 2.12634e-19)
(0.502007 -0.00319172 0)
(0.499245 -0.000372003 5.49498e-19)
(0.497616 0.0021395 2.2566e-20)
(0.49918 -0.000479466 -5.78305e-19)
(0.499044 -0.000645717 -4.45694e-19)
(0.499569 -0.000131993 -7.04693e-20)
(0.499535 0.000331845 2.52522e-19)
(0.498452 -0.0019896 1.1351e-19)
(0.498602 -0.000587644 0)
(0.50003 -0.00120684 0)
(0.506735 0.000725716 -3.26475e-21)
(0.496789 -0.00265037 -2.87598e-19)
(0.495639 0.00402639 1.68461e-19)
(0.488856 -0.00280249 3.58821e-19)
(0.493956 -0.00183762 0)
(0.50008 0.00145361 8.0833e-21)
(0.499708 0.000542311 -4.6432e-19)
(0.496131 0.000230329 2.17284e-19)
(0.495077 -0.00117116 0)
(0.500203 -0.000187851 0)
(0.497964 -0.0011289 -3.92544e-19)
(0.499919 9.74803e-05 -1.14302e-19)
(0.502565 4.92077e-05 1.15774e-19)
(0.499996 0.000150319 -1.36346e-19)
(0.493307 0.000411873 -1.39666e-19)
(0.506398 0.00360154 0)
(0.499966 0.000847044 0)
(0.500314 -0.00160815 3.46988e-19)
(0.500019 0.000106967 1.0721e-18)
(0.500522 -0.000316404 -4.63341e-19)
(0.499088 0.000513506 -2.73367e-19)
(0.500291 0.000470233 -6.2266e-20)
(0.502857 -0.000471085 2.56218e-19)
(0.499811 -0.00295089 -4.72076e-19)
(0.486679 0.00369547 -9.06706e-20)
(0.487463 0.00212617 9.28578e-20)
(0.495002 3.39144e-05 3.12699e-19)
(0.499652 0.00221802 0)
(0.49952 -0.000119155 1.14686e-18)
(0.495162 0.00267502 1.53242e-19)
(0.500941 -0.000766795 -4.55522e-19)
(0.500018 0.000192087 0)
(0.49901 0.000280849 1.21962e-19)
(0.497888 0.000257502 0)
(0.497354 0.0022804 2.57624e-19)
(0.496201 -0.00313829 1.42494e-19)
(0.497914 -0.000279374 2.52152e-19)
(0.497875 -0.00014045 0)
(0.499296 9.12295e-05 0)
(0.499517 0.000805623 0)
(0.503223 0.00111376 3.08713e-19)
(0.499807 -0.000589657 5.36732e-19)
(0.500274 -0.000774517 -3.26515e-19)
(0.495749 0.00375358 -3.53416e-19)
(0.487117 0.00181086 0)
(0.50004 -0.000379722 1.5044e-19)
(0.500032 -0.00038675 -2.74802e-19)
(0.503636 0.000592371 0)
(0.499043 -0.000505607 0)
(0.496303 -5.94465e-05 9.20406e-20)
(0.500103 -0.000370447 2.79189e-19)
(0.49881 -0.00557374 0)
(0.496617 0.00339665 -2.12114e-19)
(0.499252 -2.37337e-05 -2.59773e-19)
(0.50032 0.00334764 1.34463e-20)
(0.495685 0.000768483 -2.49463e-19)
(0.498151 -5.70798e-05 -2.45523e-19)
(0.500202 -0.000229546 1.55949e-19)
(0.499644 -0.000345824 -3.26993e-20)
(0.499688 -0.000178079 -2.83969e-19)
(0.498242 -0.00138226 -2.17605e-19)
(0.500223 -0.000572843 0)
(0.501011 -0.00168627 -5.31189e-20)
(0.499797 -0.000495572 0)
(0.500006 8.19579e-06 3.12722e-19)
(0.504109 -0.00249489 0)
(0.499482 -0.000249355 -2.56597e-19)
(0.49659 -0.000516686 -9.53876e-20)
(0.499332 0.000414795 5.9216e-19)
(0.499299 0.000248019 5.38694e-19)
(0.493191 0.00101135 8.1313e-20)
(0.501662 0.000406871 -1.88013e-19)
(0.499683 -0.00160931 0)
(0.499592 -0.0003042 -1.4614e-19)
(0.500005 -9.02139e-05 8.68691e-21)
(0.50007 1.23258e-05 0)
(0.500016 -0.000209782 7.02424e-19)
(0.498937 -0.00092178 -7.48995e-19)
(0.500384 0.00174006 -8.02154e-21)
(0.501434 -0.00578605 -2.96586e-20)
(0.499711 -4.8248e-05 6.63601e-20)
(0.499648 -0.00118945 0)