/*--------------------------------*- C++ -*----------------------------------*\
  =========                 |
  \\      /  F ield         | OpenFOAM: The Open Source CFD Toolbox
   \\    /   O peration     | Website:  https://openfoam.org
    \\  /    A nd           | Version:  7
     \\/     M anipulation  |
\*---------------------------------------------------------------------------*/
FoamFile
{
    version     2.0;
    format      ascii;
    class       volScalarField;
    location    "11";
    object      p;
}
// * * * * * * * * * * * * * * * * * * * * * * * * * * * * * * * * * * * * * //

dimensions      [0 2 -2 0 0 0 0];

internalField   nonuniform List<scalar> 
13182
(
-13702.4
-2577.95
-10141.9
-14376.2
-5427.14
-13102
-13188
-14138.2
-14596.9
-6774.69
-6781.73
-8075.39
-13291.7
-13138.9
-12920.8
-13488.4
-14505.3
-14760.5
-12778
-12882.9
-12830.3
-13984.3
-13469.3
-11717.7
-11738.9
-11833.9
-14017.8
-11628
-8209.9
-14802
-14797.7
-14515.8
-13444.3
-6682.13
-6126.04
-12910.4
-14567.4
-8852.17
-9517.41
-14060.2
-2642.16
-3008.39
-10149.5
-1350.5
-11413.2
-4821.01
-14351.8
-9364.74
-8968.51
-14277
-11054.9
-11171.7
-6462.98
-14136.6
-13165.4
-11861.9
-8478.99
-14199.5
-13199.4
-14652.9
-14576.5
-14461.8
-14063.3
-12165
-10934.4
-10862.8
-13312.9
-11519.2
-5695.46
-12318.1
-1607.14
-13999.2
-14132.9
-11592.7
-2265.84
-14521.5
-14524.3
-14286.1
-13704.4
-13678.7
-14776.9
-6454.72
-12759.6
-12865.3
-2194.94
-2364.03
-2864.69
-7133.43
-11835.3
-12057
-7788.74
-14550
-7115.47
-7066.15
-13751.5
-14267.4
-7809.7
-13573.1
-14228.4
-12855.3
-12697.3
-8447.23
-10687.5
-13122.5
-13795.2
-11193.2
-2795.72
-2720.38
-14511.9
-9364.57
-14215.8
-3930.2
-3635.72
-13151.9
-10777.9
-7042.18
-14205.7
-2239.07
-12252.1
-12100.9
-11979.4
-5595.95
-14518.4
-12913.9
-9965.75
-9636.23
-12907.3
-14666.7
-12983.8
-8704.3
-852.921
-762.401
-14146.1
-5064.79
-13155.2
-14583.3
-14484.4
-12189.7
-12992.5
-13691.8
-7475.95
-2339.62
-2709.62
-10741.9
-10587.1
-14200.4
-13597
-5052.82
-14679.5
-8769.08
-1370.08
-10979.6
-11032.8
-8695
-11707
-11632.5
-2014.18
-4279.24
-3271.51
-11511.3
-11637.5
-8702.02
-7899.51
-14110.6
-13806
-10475.6
-14588.3
-12309.4
-10515.3
-4924.55
-6158.51
-13347.4
-13323.8
-1016.83
-9096.21
-13905.7
-4105.24
-7691.66
-14027.5
-12939.4
-11647.8
-8765.1
-14570
-12399.4
-5861
-8991.72
-9419.56
-13847.8
-11390.9
-11144
-7930.1
-14558.3
-9240.91
-2316.3
-14531.9
-10149.9
-8528.8
-12729.2
-11663.6
-11969.5
-13765.3
-13778.1
-1676.23
-14267.4
-7129.32
-2064.94
-5851.2
-644.318
-14606.3
-6743.7
-10248.1
-566.141
-14136.1
-13164.5
-7733.99
-12407.4
-11116.4
-14602.1
-10209.7
-1407.92
-11335.6
-11644.1
-1166.34
-13043.5
-5690.07
-14567.2
-14332.1
-14762.9
-14822.8
-13973.7
-14252.4
-13671.4
-13617.2
-13191.4
-13943.8
-14052.1
-10066.8
-14017.2
-14001.7
-13553.7
-1764.99
-1882.43
-14149.2
-13460.3
-13525.3
-13060.8
-12241.9
-12199.6
-14400.7
-12172.3
-13454.6
-6812.26
-10049.9
-10170.9
-2131.45
-14524.8
-7612.36
-1370.56
-1214.26
-4049.78
-9908.89
-14608.9
-14485.1
-14917.7
-12151.1
-10377.2
-7338.74
-14194.1
-12085.8
-14371.5
-14230.2
-14205.4
-14212.5
-8590.55
-14525.8
-8542.61
-14080.1
-14020.5
-12384.2
-2068.64
-14781.6
-9384.89
-9275.77
-13121.4
-13547.4
-8876.11
-9021.39
-14782.4
-5723.63
-14300.3
-14272.9
-6756.55
-5146.62
-11375.8
-14420
-14439.3
-14549.8
-14546.8
-14682.3
-14665.4
-10283.5
-12051
-13742.8
-13705.2
-5969.76
-4490.05
-12284.4
-12590.6
-14389.2
-10300.1
-13504.9
-14672.4
-9361.23
-14056.5
-14563.5
-14543.9
-14550.4
-13212.9
-14805.6
-7722.34
-7445.22
-5064.2
-14111.5
-14143.4
-13182.7
-14443.5
-10905.7
-12827.3
-10900.9
-8961.57
-12761.5
-12819.6
-7747.03
-7802.73
-8045.06
-12021.7
-12139.5
-12723.9
-14659.2
-6354.83
-1734.19
-14042.5
-14873.9
-5728.33
-5929.57
-14253.2
-12033
-12161.6
-13136.6
-11549.7
-11712.2
-14561.2
-4873.16
-14028.8
-14014.6
-14364.9
-13620.9
-13664.2
-14502.1
-13704.6
-7228.76
-14599.5
-4135.45
-13997.7
-4272.63
-5020.48
-14520.8
-13785
-13832.1
-9809.59
-14567.2
-13815.6
-7491.63
-9748
-13525.4
-14539.4
-9348.01
-6363.8
-1679.22
-12913.2
-12159.3
-7380.42
-14542.8
-13131.1
-10953.7
-11061.4
-10121.5
-13980.3
-5496.28
-12893.9
-11621
-14748.9
-14756.3
-12789.4
-12718.8
-14194
-14564.9
-7001.7
-9909.05
-14039.2
-7224.17
-6802.93
-12422
-14572
-14097.6
-8480.87
-11694.5
-14613.9
-14492.5
-10578.7
-12894.6
-12941.2
-7359.9
-10800.4
-14869.6
-4987.32
-14400.4
-6141.07
-9927.65
-13502.4
-10486.3
-13767.8
-14556.9
-14570.9
-14861.4
-6390.33
-14136.4
-11047.1
-13716.9
-13719.6
-1825.94
-11691.6
-12267.1
-14283.9
-13768.1
-5582.92
-13451.1
-9525.2
-6606.4
-13287
-3314.9
-9893.5
-10002.2
-12574.7
-10985.9
-14426
-3565.88
-14547.3
-7225.04
-14776.7
-14209.8
-8399.13
-8269.13
-14431.5
-3868.57
-12029.4
-14911.4
-14548.4
-14525.4
-14179.7
-14610.3
-13781.4
-4294.38
-14088.9
-14286.6
-14810.9
-9818.56
-9680.79
-14503.7
-13739.2
-13743.7
-4626.95
-14742.6
-11542.7
-4633.97
-9740.26
-14687.1
-7672.88
-14692
-14482.5
-14449.1
-14498.2
-10511.1
-14155.7
-2224.76
-7521.93
-12657.9
-8038.83
-5364.9
-2737.47
-14277.3
-10883.9
-14473.9
-4093.15
-14921.7
-9216.86
-11719.3
-2350.97
-13378.6
-6697.19
-14375.5
-14046.1
-14505.2
-4744.11
-7449.39
-13042.4
-14218.6
-14199.4
-9914.24
-8782.38
-8995.32
-9239.34
-13408.8
-12080.3
-11342.5
-13416.5
-9614.95
-14298.2
-12987.4
-3773.96
-13059.9
-13953.7
-13982.3
-8945.64
-10339.2
-10533.7
-14251.4
-11659.6
-14738.1
-11611.3
-11661.8
-14146.7
-13465
-13589
-1311.17
-13074.7
-13012.4
-8161.46
-11728.9
-11292.5
-12667.9
-7475.06
-14780.7
-8907.25
-13432.1
-10861.4
-10656.4
-13928.5
-8416.18
-14590.8
-14728.6
-13649.7
-13686.9
-13899.7
-13836.2
-14419.4
-14848
-14096.3
-12078.5
-14145.7
-5381.25
-14633.4
-13796.5
-11466.5
-14206.3
-13858.1
-11515.9
-3751.03
-8788.65
-12817.9
-12571
-7257.72
-7060.38
-11703.2
-14532.8
-14007.1
-13722.5
-13240.8
-14116.3
-9384.54
-12597
-6395.78
-14432.4
-13614.3
-13468.9
-12723.1
-14520.9
-14033.9
-14077.1
-9587.53
-9607.56
-2788.55
-13777.3
-12656.2
-13466.4
-7743.49
-10260.7
-14577.6
-14900.6
-14872.6
-14265.9
-13803.3
-13857.8
-13811.7
-6617.77
-11294
-6570.83
-10849.6
-14558
-14498.1
-14733.4
-7246.78
-14112.5
-5932.19
-9728.5
-3510.16
-8183.4
-11880.4
-6465.61
-11360.4
-14397.8
-7938.55
-13703.8
-14514.8
-6061.93
-6621.69
-14785.7
-13232.7
-6235.29
-14191.3
-14789
-14797.6
-12280.7
-11921.7
-6038.28
-7714.37
-14181.1
-13800
-14236.1
-13207.8
-14142.3
-7922.16
-11689.1
-13812.7
-14526.1
-5422.71
-7496.88
-14260.8
-9453.29
-5663.08
-14385
-14361.7
-8692.39
-14574.6
-14377.2
-7400.13
-14796.5
-9924.76
-6426.33
-7555.59
-14579.3
-9339.22
-6728.65
-12668.7
-12901.7
-12803.2
-13647.6
-13671.8
-14605.2
-10919.7
-14929.2
-13504.3
-14622.2
-12685
-14260.7
-4694.2
-14778.4
-13835.6
-6768.62
-14288.1
-10995.1
-14406.2
-14401
-8056.83
-14574
-7741.94
-7696.63
-7132.53
-7119.77
-14436.3
-13238.7
-13306.3
-3630.09
-8041.37
-14575.8
-14579.3
-13685.6
-12934.1
-11737.1
-6028.48
-14510.1
-14559.8
-14110.3
-13758.3
-4775.53
-11140.7
-14213.4
-14128.9
-3115.66
-11553.6
-14033.3
-14321.3
-13862.6
-13808.6
-7073.52
-7563.37
-14333.9
-14362.7
-14098
-1736.29
-3988.31
-8291.57
-14343
-12804.3
-14803.4
-14892.2
-4764.16
-3851.66
-9456.51
-14928.8
-13118.4
-12578.9
-11980.7
-13697.6
-12810
-9235.47
-13902.5
-14533
-12610.6
-11017.2
-11122.4
-14369.9
-11293.5
-11304.9
-14852.6
-7062.17
-12001.7
-12504.5
-13136.5
-11493.9
-14486.5
-7281.94
-12663.2
-13728.1
-4946.33
-14572.5
-11323.2
-12702.8
-14511.2
-5660.29
-14063.2
-14464.6
-4925.53
-9646.28
-14485.1
-14670
-12014.8
-12967.2
-8480.94
-14261.3
-2368.26
-1968.29
-14331.6
-12963.8
-14519
-14608.7
-7069.83
-11570.6
-14234.4
-14464.7
-11567.9
-8863.41
-14637.2
-11690
-1511.96
-1276.05
-14707
-12823.4
-12889.3
-9625.02
-10505.5
-4215.72
-13995.1
-6950.71
-11969.1
-6174.14
-14010.3
-13659.4
-14413.1
-7170.69
-8567.75
-11161.2
-7687.57
-14086.4
-4029.98
-14404.2
-11244
-14532.5
-13755.9
-12470.7
-11793.1
-1809.29
-6929.83
-7324.25
-8657.96
-3887.61
-8813.87
-14402.8
-14232.8
-11410.7
-11446.7
-14824.3
-10227.7
-12439.8
-12349.4
-14469.1
-6559.25
-6198.18
-13134.7
-12703.7
-14190
-13014.4
-14091.4
-14033.6
-12064.6
-12497.4
-4577.9
-4678.61
-8704.89
-11701.7
-14689.8
-8342.01
-12414.1
-14372
-13296.2
-12270.1
-12292.1
-8134.78
-12431.9
-10424.9
-14404
-13898.7
-12879.4
-14618.3
-13122.4
-10133
-781.105
-14891
-14277.3
-2565.56
-12912.5
-5580.39
-14783.1
-4109.13
-10679.2
-14233.2
-2807.39
-12594.2
-13721.1
-14478.8
-14529.8
-14524.4
-11428.3
-14637.1
-10894.5
-14098.2
-14036.9
-2216.9
-14457.1
-10466.9
-14038.3
-14436.7
-4917.35
-8277.11
-12012.1
-14010.9
-14609.7
-14454.6
-11828.8
-11760.4
-13591.4
-1612.07
-13926.8
-14291.1
-8880.85
-14345.2
-8014.92
-11397.1
-976.05
-13899.8
-5897.45
-12972.3
-8522.9
-14794.7
-14206.8
-13748
-8634.39
-8936.85
-13608.6
-3846.04
-6362.6
-5400.63
-5304.06
-10254.8
-13503.3
-9770.65
-9050.71
-9279.21
-7117.95
-13864.2
-13851.7
-8580.36
-13721.1
-14585.3
-1658.49
-14542.8
-13120.7
-12923.3
-13284.1
-14059.8
-14233.7
-13813.8
-13828.2
-8775.48
-13986.3
-13378.2
-13790.2
-12623.4
-12500.7
-12555.9
-6279.39
-11357.1
-11420.3
-14232.4
-6164.51
-9728.93
-11638.6
-7698.69
-7411.47
-11238.6
-4740.84
-13899.4
-9439.37
-12733.3
-12677.3
-9242.52
-13240
-6053.5
-11251.3
-14561.6
-5992.12
-14698.5
-7953.99
-7506.47
-11020.3
-14839.2
-11259.6
-14435.3
-14394.2
-13008.4
-11319.7
-13975.1
-14402
-12809.3
-1677.93
-6080.69
-12690.7
-14130.6
-13612.9
-13515.3
-13177
-5493.54
-14291.3
-11635.1
-14230.9
-8366.46
-14434
-11357.6
-12434.3
-12591.9
-12668.4
-12968.5
-12877.5
-12822.8
-13225.2
-4315.19
-13059.4
-1108.16
-14341.2
-14328.3
-14310.6
-11905.7
-13142.7
-11684.4
-14725
-13784.9
-13664.4
-12957
-3788.35
-14366.3
-6167.87
-14116.2
-14818.2
-12300.3
-12317.7
-9024.44
-981.419
-12532.6
-6727.42
-14355.2
-14491.7
-14521.2
-14552.7
-11981.4
-12007.2
-14800.8
-14571
-13713.6
-14934.1
-14193.4
-14631.8
-9915.66
-10277
-1325.23
-9235.08
-3852.39
-13867.2
-4344.88
-14443.6
-8666.8
-14595.6
-14630.1
-14331.9
-13922
-5304.05
-12432.2
-11540
-14204.5
-10307.1
-14275.7
-8801.77
-9295.65
-11383
-2381.18
-14380.6
-4992.12
-4956.43
-12148
-14610.8
-14329.3
-7767.01
-11031.9
-13238.6
-10684.5
-12224
-5890
-3442.98
-14611.8
-10822.6
-11944.1
-9002.7
-8642.45
-8511.75
-12306.1
-14870.7
-14712.4
-12256
-6111.8
-8257.91
-13773.6
-14616.6
-14613.2
-4199.33
-4313.18
-14495.6
-14472.3
-14621.7
-10475.8
-11095.4
-12284.2
-4121.35
-8237.68
-14067.3
-8217.83
-8235.5
-13908.1
-12653.7
-11491.9
-11501.3
-13704.9
-12746
-13398.9
-3449.8
-7462.94
-9480.07
-9349.68
-14127.6
-8944.24
-14507.9
-11481.8
-11128.4
-13220.5
-2086.78
-12283.2
-6340.94
-12922.6
-13768.6
-1383.61
-1162.03
-14289.2
-3856.3
-14590
-2338.23
-12316.7
-13544.9
-14646.8
-14308.2
-9656.72
-13212.3
-8942.46
-13688
-13319.4
-13410
-9372.36
-9160.81
-14607.4
-3090.31
-6458.13
-14616.9
-14808.6
-14703.9
-14094.3
-1410.84
-9353.9
-9463.25
-4112.28
-13682.8
-11535
-12545.8
-13084.1
-5349.09
-12975.6
-8027.17
-8398.02
-14797.5
-7619.84
-13702.2
-12311.2
-7847.6
-7099.6
-14270.8
-5710.07
-3962.55
-14382.3
-11598.7
-14133.3
-13637.4
-1941.99
-10906.7
-9205.3
-14057.5
-13969
-14043.7
-13699
-14379.5
-8636.87
-13837.1
-7253.24
-11387.3
-13782.6
-12500.5
-8692.77
-845.019
-12364.9
-14299.7
-14948.1
-12105.7
-12246.8
-3943.97
-13883.5
-12119.3
-8801.8
-11154.6
-6861.84
-13172
-13860.1
-13866.3
-12481.6
-11243.9
-14329.9
-13884.2
-8431.71
-8503.02
-6078.28
-4029.9
-11598.8
-13814.9
-13307.9
-9341.99
-11990.8
-13804.5
-8192.16
-14317.8
-7221.52
-2464.18
-8229.75
-14263.5
-7482.63
-13163.3
-11889.8
-10353.6
-13001.9
-11929.6
-11854.8
-10882.6
-10510
-12064.9
-2057.66
-14264.7
-14403.7
-6097.24
-14543
-5819.14
-7315.7
-9746.11
-14902.8
-14012.9
-4179.93
-3483.79
-11457.2
-13577.5
-13775.9
-12870.9
-9389.9
-5121.96
-14721
-14707.9
-1151.48
-11665.5
-4832.28
-11970.5
-14186.5
-14144.6
-13889.9
-13347
-14159.7
-9394.83
-13452.1
-12649.4
-12655.2
-6782.47
-11097.9
-12730.9
-14365.2
-9395.16
-11114.2
-11146.1
-9143.39
-9345.23
-9280.74
-7554.21
-14179.1
-14438.7
-12546.3
-12156.6
-11421.3
-11343.8
-9308.47
-10727.1
-14481.6
-14239.3
-13293.1
-12494.7
-12616.7
-9216.8
-14670
-14660.2
-14445.2
-9174.31
-12370.5
-12445.6
-12420
-12572
-4073.44
-14052.4
-14472.4
-3046.56
-2590.48
-12860.7
-14495.9
-14470.1
-9097.64
-14277.2
-12841.5
-5257.66
-12727.7
-12936.5
-14613.2
-14604.3
-14524.9
-14366.7
-8824.62
-14279.5
-8308.49
-8402.15
-13323.8
-11047.5
-14190.4
-9547.69
-12666.1
-12367.6
-3703.86
-4921.45
-8879.23
-2703.68
-12145.3
-2348
-12533.3
-14262.9
-4563.57
-10435.4
-10394.7
-14562
-9960.68
-13645.9
-14401
-1687.33
-14226.7
-14621.8
-14779.4
-13538.5
-13500.6
-10209.4
-14039.3
-14852.2
-9940.46
-14471.7
-14465.5
-8321.46
-8525.96
-14371.5
-9614.6
-14679.3
-14610.4
-14512.5
-14534.9
-4094.13
-14620.1
-14223.8
-2709.33
-4476.8
-11019.2
-14025
-11126
-13231.6
-12752.8
-11535.5
-13351.1
-12971.8
-14283.2
-14245.4
-13329.5
-14308.5
-14902
-14693.4
-8689.19
-14569.9
-14496.5
-14496.9
-10335.4
-10528.3
-14490
-12085.3
-14619.4
-14388.6
-12939.3
-14906.1
-6394.23
-10103.7
-14051.7
-12871.5
-12907.9
-7932.87
-11465.7
-12483.4
-14187.5
-6840.49
-13058.3
-14527.2
-14713.3
-14718.9
-13948.3
-14795.5
-14456.7
-7868.97
-14446.7
-13799.5
-14200.3
-11459.5
-14773.6
-10019.5
-8049.92
-14461.3
-14449.7
-13010.6
-1968.94
-12876.4
-9589.01
-11152.8
-11962.7
-12016.5
-12010.2
-9067.33
-12395.4
-14774.1
-14600.4
-11085.4
-13356.6
-10309.2
-9935.68
-14149.5
-11785.7
-11645.9
-11111.9
-9594.22
-13793.7
-12542.2
-14017.3
-14843
-11132
-14615.8
-14556.3
-14554.6
-3215.06
-11416.7
-11352.9
-1959.82
-9657.36
-7789.41
-13629.1
-14160
-14252.4
-12025.3
-5998.04
-6174.5
-14195.8
-11801.9
-14639.8
-6006.69
-14693.7
-14693.2
-14312.5
-13196.8
-9735.25
-2558.04
-5277.38
-10639.4
-11096
-14004
-3717.65
-3842.6
-5029.25
-14403.6
-14420.4
-13919.4
-12310.3
-9979.37
-11009.4
-9544.84
-8337.24
-10791.8
-6549.93
-12908.3
-14196.2
-13270.4
-13232.2
-14613.5
-6745.78
-10180.7
-13802.1
-8585.86
-8335.66
-9266.71
-4919.97
-13086.7
-13177
-14185.4
-8824.04
-10996.4
-14558.3
-14560.5
-10369.2
-10460
-4505.62
-13995.1
-9501.16
-2333.16
-13022.7
-8463.57
-5069.04
-2152.33
-13489.8
-13496.6
-5981.45
-14599.9
-2034.05
-14729.6
-14055.4
-7941.58
-14082
-14043.5
-11966.4
-14326.2
-6500.15
-7832.43
-12121.1
-11506.2
-14726.2
-14554.3
-12299.2
-4366.83
-5231.45
-14574.7
-14581.4
-14567.8
-14946.7
-8221.96
-13794
-7882.24
-7817.26
-13901.4
-14438.9
-14309.1
-14650.2
-5750.17
-6711.08
-2556.77
-11187.1
-11147.6
-12496.8
-12984.9
-12250.3
-14901.1
-5105.48
-14205
-12153.7
-14895.5
-4245.69
-13948.5
-9426.6
-6803.11
-7489.97
-3603.26
-12663.4
-12978
-4468.39
-4947.1
-2763.32
-4141.13
-14004.6
-8480.31
-6804.64
-7129.39
-14083.9
-3949.99
-13006.9
-14711.2
-1373.53
-14190.8
-10589.7
-4777.3
-11655.6
-8892.08
-12527.5
-11865.8
-5186.69
-14360.3
-14006.6
-14125.6
-13806
-14582.3
-14942.4
-3921.85
-12187.5
-14125.1
-8665.17
-7702.96
-14333.5
-14226.2
-13274.6
-10435.1
-13962.9
-14474.8
-14467.7
-14713.9
-14103.1
-5261.64
-5631.15
-11952.2
-14045.5
-14462.2
-14473
-14441.8
-14399.9
-12144.2
-14508.4
-12945.2
-13023.8
-13147.8
-13687.9
-4075.05
-14853
-14081.6
-4893.79
-14413
-8469.6
-14248.3
-6382.06
-14511
-14716.8
-14088.9
-7803.44
-7373.58
-14483
-14790.6
-14063.7
-14233.8
-2643.36
-8107.47
-13380
-13067.2
-12495
-12339.2
-14195.9
-14869.5
-12954.8
-14462.4
-12458.1
-14686.9
-13130.2
-13118.4
-14186.2
-11621.4
-13754
-11358.9
-13915.6
-2708.61
-7233.93
-14161.4
-5564.23
-10790.2
-9813.29
-2889.7
-13894.5
-12079.6
-14563.1
-13995.7
-8966.82
-994.613
-13510.6
-14147
-8694.08
-5283.57
-7624.93
-7490.34
-7957.44
-10951
-14033.1
-14418.9
-11905.8
-9125.75
-13636.1
-14502.8
-14025.7
-12784.8
-14020.9
-12320
-1320.42
-14010.4
-10477.1
-10224
-6300.32
-8957.9
-14935.6
-14940.4
-12895.3
-2067.59
-9005.73
-14399.2
-4511.44
-14182.2
-14444.3
-6009.29
-6350.98
-2616.07
-7995.06
-14784.4
-14410.4
-12638.2
-14698.7
-13738.7
-11943.3
-14819.2
-14224.8
-13015
-14414.8
-7381.01
-14493.5
-5361.56
-5505.97
-8215.64
-12356.9
-14545.7
-13732.4
-13427.6
-3581.59
-14713.7
-14504.2
-11388.4
-11504.2
-10469.4
-10065.7
-13143.7
-13225.9
-12420.6
-14577.7
-5366.84
-13871.4
-2151.85
-11840.2
-13685.1
-4634.98
-14424.4
-14387.1
-14151.3
-14601.5
-14608.2
-14560.6
-13458.8
-14949.2
-12943.8
-11546.9
-14744.2
-12684.8
-14162.1
-7283.87
-8140.16
-9128.3
-12887.6
-14899.3
-14904.5
-8501.93
-11735.7
-14329.5
-13002.4
-13972.9
-3746.07
-6316.9
-6917.21
-6860.04
-14899.4
-12513.6
-12861.1
-10584.5
-13971.3
-14158.3
-14529.9
-14588.6
-4345.34
-4150.8
-8495.01
-7677.6
-14532.2
-14215.4
-12447.9
-1865.26
-14338.9
-6575.14
-10507.1
-898.095
-10110.7
-9798.12
-12902.3
-5050.87
-13409.6
-13360.8
-13387.4
-12800.4
-11905.4
-14213.3
-14483.8
-7974.99
-14681.8
-14817.5
-6938.24
-14087.5
-7642.85
-12643
-12569
-14127.8
-14162.9
-10709.1
-13512.7
-13653.8
-13716.4
-6901.21
-9665.57
-9910.52
-13920.8
-3348.21
-13600.1
-8673.27
-9233.33
-13627.9
-12756.8
-14408.3
-1658.66
-14064.2
-13982.3
-11853.3
-4098.86
-14576.4
-14154.4
-11940.3
-14788.7
-11942.6
-14234.5
-11397.2
-14185.3
-7814.03
-6961.48
-7091.59
-14468.4
-8434.31
-13470.9
-12423.9
-13452.7
-8772.82
-10345.9
-12307.2
-14564
-14564.3
-13833.2
-12640.2
-13352.6
-5340.09
-14683.1
-11201.5
-11172.2
-7228.22
-14282.9
-9133.25
-5619.6
-12256.8
-14407.9
-14417.5
-13635.8
-14493.3
-14839.9
-11896.9
-5897.61
-13151.7
-2159.72
-6349.32
-11872.4
-11859.8
-1411.72
-14801.6
-6670.9
-2821.72
-14412.6
-8001.81
-14046.2
-4744.64
-10375.8
-14335.1
-14561.6
-14860.5
-14501.9
-12336.1
-14427.5
-14205.3
-14144.7
-14556.3
-14605.2
-8853
-11941.4
-5810.95
-13166.9
-8122.37
-5788.58
-9553.9
-7892.9
-14488.9
-11677.1
-11828.4
-4727.49
-12501.2
-14652.7
-12024.6
-974.705
-1203.15
-14649.2
-12761.3
-1519.44
-9551.29
-14351.5
-14044.1
-6068.56
-13120.3
-14509.9
-14567.5
-5475.61
-6144.53
-2417.89
-12567.8
-12574.2
-14270.7
-11817.4
-11822.4
-1230.03
-4283.38
-10043.3
-707.36
-12415.3
-14608.4
-4190.92
-5155.48
-2187.58
-14617.5
-14459.5
-14482.5
-14699.4
-14685.6
-13829.9
-7706.49
-7842.94
-14428
-14427.8
-14300.9
-14436.3
-14911.2
-14039.8
-13981
-11783.6
-4259.89
-10639.4
-11063
-7093.04
-12478.1
-14394.6
-14500.3
-8827.02
-12002.9
-14539.5
-14808.5
-14946.4
-4454.59
-9179.59
-12934.6
-7134.23
-14337.2
-14518.1
-11690.1
-11703.4
-9346.3
-12508.7
-13447.9
-8940.68
-14411.4
-13988.7
-13748.9
-13671.8
-13589.3
-2439.75
-8511.65
-8866.7
-13643.1
-14597.1
-11782.3
-3644.83
-2849.11
-3146.07
-8300.85
-6510.6
-14327.8
-14478.8
-13356
-3469.21
-13290.8
-14777.8
-14543.2
-12472.8
-14612.1
-14889.5
-14901
-12686.9
-14188.1
-13735.6
-3943.45
-14303.8
-14109.8
-8473.84
-9850.84
-12485.4
-13291.3
-13265.7
-14183.6
-11848.4
-14120.8
-4843.24
-9506.75
-9654.42
-11124.5
-11170
-10340.2
-10084.7
-8583.62
-11552.7
-4121.22
-4567.58
-14790.9
-14697.2
-14716.4
-14690
-1565.34
-1403.97
-13699.5
-13320.4
-11181.1
-7327.42
-6267.26
-13632.2
-11461.9
-12924.6
-13944
-730.247
-5287.23
-11134.8
-13006.5
-13037.2
-11308.9
-14499.5
-14658.4
-751.793
-823.231
-14513.1
-5051.21
-14034.3
-8972.88
-6987.3
-11839.8
-13978.4
-13175.4
-7863.41
-8005.06
-14519
-12937.2
-13844.7
-4028.04
-14680.9
-8061.19
-8193.97
-14093.5
-11017.8
-13814.8
-13088.2
-13055
-6289.05
-8961.27
-4119.11
-1966.71
-1969.44
-1852.53
-14554.2
-14554.5
-12699.7
-12962.6
-14126.2
-14308.9
-14336.4
-12197.8
-10580.3
-1917.91
-14606.4
-14440.3
-11299.1
-12222.9
-12203.8
-7345.63
-12465.8
-13653.4
-9430.41
-13837.9
-14337.4
-14660.5
-14190
-646.194
-10553.2
-14947.4
-13208.5
-13097.3
-12293.8
-13395.4
-13411.7
-9004.13
-5800.03
-13359.9
-10419
-12792.4
-12916.4
-13984.7
-11179
-12431
-11242
-11033.6
-8598.94
-14470.2
-13785
-14527.3
-14670
-4045.51
-13305.9
-7616.92
-8128.5
-13389.2
-10791.1
-13950.4
-12399.2
-8091.68
-9421.65
-1590.08
-8924.44
-6623.9
-14596.6
-14021.9
-14299.9
-1236.48
-1104.75
-14565.6
-12429.5
-6486.81
-12941.6
-13390.4
-13182
-14843.6
-14114.7
-9403.84
-10064.6
-10262.9
-14929.7
-14713.6
-14182.5
-14190.6
-13669.9
-13562.6
-8527.8
-10656.4
-8634.69
-12370.5
-12863.1
-12299.6
-14611
-14346.4
-14563.4
-14548.4
-14263
-14587
-3928.33
-10946.5
-11373.8
-13898.2
-13871
-13996.4
-4173.94
-7990.49
-10961.4
-11181.9
-2644.54
-10373.8
-6443.69
-12627.8
-8357.1
-8444.42
-7777.84
-14317.6
-14542.9
-14684.2
-14358.9
-13707.2
-9421.1
-9244.54
-13159.1
-13296
-7637.21
-4191.32
-4539.47
-13492.3
-9928.43
-9932.48
-4345.8
-4696.49
-14292
-5649.87
-5838.53
-7113.05
-14191
-13519.1
-1891.13
-7035.79
-13320.6
-12992.1
-8915.12
-9910.63
-12345.6
-14517.3
-3198.29
-9944.2
-11868
-2472.72
-13553.2
-13713.5
-11951.3
-12830.7
-14660.8
-14658.8
-14010.8
-8966.48
-7587.32
-10107.7
-13043.1
-14314.5
-8430.7
-11296.6
-14105.3
-13348.1
-3195.84
-8724.95
-11637.2
-8747.74
-4209.73
-11534.5
-7251.36
-13236
-12149.7
-14627.4
-11383.7
-13807.7
-14262.1
-11069.9
-12367.5
-6320.74
-6014.21
-8583.85
-11394.8
-10177
-2256.4
-13294.6
-12571.6
-13060.5
-2083.18
-11900.1
-13650.2
-14744.3
-14733
-14227.2
-7061.59
-13077.3
-3844.38
-3455.98
-12005.3
-14008.1
-14390.9
-14392.7
-14434.7
-14041.1
-14025.5
-13648.6
-9306.23
-14568.1
-13968.5
-11921.4
-12629.7
-14639.8
-14542.9
-13721.9
-13940.6
-11600.2
-12447.7
-14000.6
-14605.2
-3666.08
-9675.17
-1363.73
-2368.25
-2264.9
-13006.6
-13114.4
-13126
-13237.3
-13565.9
-2988.45
-13349.8
-4532.86
-4530.32
-11104.2
-9433.64
-14875.5
-10312.2
-14086
-10253.8
-1653.36
-13137.1
-7385.15
-13874.2
-13570.8
-14627.7
-14600.2
-10753
-12193.6
-14521.4
-6936.18
-9707.28
-11924.2
-9317.94
-4156.36
-3618.64
-12917.4
-13909.4
-14235.7
-13880.4
-12446.1
-13610.7
-1884.36
-14831.4
-14837.4
-4096.59
-14527.5
-2489
-5721.93
-14499.2
-14554.8
-13589
-13558.2
-14159.4
-11393.3
-11378.5
-14563.3
-14453.6
-14458.8
-12526.1
-12248.6
-14688.6
-14691.3
-14306.3
-12478.3
-4264.01
-12805.5
-14192.4
-13626.9
-3495.86
-12141.4
-12480.9
-5114.3
-11319.5
-10822.6
-12229.4
-7759.81
-14329.6
-14079.4
-14140
-913.934
-14260.5
-14552.7
-3456.59
-3605.58
-9450.38
-10167.4
-10216.6
-14215.9
-12368.5
-9309.01
-14110.2
-4612.93
-13524.2
-3877.21
-12056
-12025.9
-9060.81
-8777.75
-14485.8
-13606.9
-13543.4
-13252.5
-10663.6
-8916.01
-14770.4
-8281.88
-14011.6
-14691.4
-13379.4
-3969.68
-13716.9
-13874.9
-13443.6
-9992.75
-850.276
-14628.6
-11212
-14788.1
-1769.74
-14934.5
-4599.25
-11807.2
-11096.6
-4290.59
-13347.7
-14597.7
-5051.74
-5550.72
-4666.78
-10459.8
-5634.67
-6665.35
-4316.47
-9158.08
-14380.2
-14556.8
-11929.2
-3247.47
-3387.15
-7257.67
-11873.7
-14175.9
-14719.5
-14732.2
-8806.15
-12433.2
-4383.85
-4540.67
-4650.55
-14931
-13864.4
-13019.4
-14000.3
-14555.8
-14555.9
-12592.2
-12714.6
-8487.28
-8609.24
-5455.34
-13093.8
-14397.3
-14393.3
-14529
-4174.46
-11995.1
-11956.4
-14140.2
-11805.6
-3115.53
-11883.7
-13267.3
-9051.59
-14169.5
-13925
-8987.94
-11277
-4981.2
-6339.4
-9746.33
-9575.27
-8121
-11292.6
-14240.2
-14110.4
-570.727
-11641.1
-5571.43
-13105.7
-14505.7
-14648.6
-14571.2
-2394.17
-13796.7
-3653.33
-14239.6
-14588.1
-14565.7
-7770.99
-9435.97
-11551.5
-14341.1
-7880
-14241.6
-14898.5
-9363.41
-9418.34
-12590.5
-13986.3
-14805.7
-14884.6
-12809.6
-10299.5
-3308.24
-3539.96
-13793.3
-14398.2
-8914.56
-14851.7
-14587.9
-14591.4
-13240.7
-14640.9
-8647.73
-8622.27
-14592.6
-12505.6
-14060.4
-4111.22
-12759.5
-6934.44
-10880.2
-10819.9
-6646.8
-14692.1
-8995.18
-14114.7
-14069.3
-13838.2
-13803.9
-14327.1
-14345.5
-9070.09
-14869.3
-13790
-14510.2
-11437.8
-14143
-12682.4
-12600
-9454.14
-14337.6
-2873.49
-3407.99
-6603.46
-8463.64
-8733.43
-12821.3
-12988.2
-13029.8
-13677.7
-10670.3
-12189.8
-11428.9
-9695.77
-13791.1
-14526.2
-14608.4
-6479.08
-5328.94
-12439.8
-6434.35
-4091.32
-13252.8
-9152.8
-13000.7
-7306.15
-13445.3
-13851.4
-1027.48
-10431.5
-1251.04
-4096.43
-14085.3
-12634.7
-10494.8
-10648
-14585.1
-13624.6
-13640.8
-13754.6
-14530.9
-10651.7
-14600.4
-14215.9
-14160.6
-14410.9
-10705.3
-14562.5
-14235.4
-14581.1
-14453.4
-8483.92
-120.934
-14612.7
-13019.8
-12231.7
-13210.2
-14043.6
-11528
-7722.27
-11865.4
-11977.1
-7204.32
-10907.5
-14491
-8852.33
-13370.3
-9428.82
-9215.6
-11970.4
-4275.32
-9226.28
-5263.19
-11801
-11112.3
-7235.13
-14424.7
-8699.66
-14496.1
-13125.2
-8992.83
-10837.5
-14833.9
-3943.51
-14524.7
-12282.5
-13709.6
-13426.3
-13286.5
-11144.5
-11150.3
-14215.1
-8845.9
-8915.58
-14839.1
-3310.99
-13545.6
-14533.4
-12640.3
-12307.7
-14159
-14692.6
-5336.33
-14692.6
-14269.9
-12089.2
-12212.1
-13160.4
-12491.1
-14268.6
-11241.5
-3282.05
-13716.6
-13719
-13891.4
-9957.68
-12074.3
-13566.5
-14384.8
-14536.2
-14527.4
-13513.2
-412.642
-14408.3
-14442.7
-12236.6
-5009.45
-13807
-13969.9
-7153.08
-14179.3
-7247.44
-7366.41
-12799.4
-14562.6
-8160.89
-9776.85
-9938.89
-2225.59
-13499.8
-13480.3
-14575.7
-10374.4
-8538.74
-3291.45
-13238.6
-14246.8
-975.915
-11850.4
-14614.1
-12696.1
-14782.5
-6641.33
-14716.3
-14382.2
-12654.1
-12588.5
-7717.26
-6784.49
-9681.15
-14541.5
-10220.1
-9308.87
-7648.9
-12389.6
-7382.53
-14297.1
-5736.71
-12507.3
-12860.1
-12802.1
-11556.2
-6872.18
-5701.2
-11373.7
-11335.2
-11310
-14500.6
-6825.27
-12477.7
-14090.1
-9522.07
-2050.08
-2676.32
-4191.85
-6803.37
-13306.1
-13057.9
-13014.1
-13609.2
-4673.34
-13898.3
-13953.9
-10668.8
-7826.07
-11310.8
-14712.2
-2385.28
-14266.4
-10177.9
-14902.8
-9538.6
-8000.32
-10592.6
-8573.14
-13681.1
-1107.39
-13813.1
-10223.8
-13204.5
-14371.2
-13487.8
-14347.9
-7677.41
-5977.34
-14711.3
-13071
-5058.16
-12534.7
-2477.6
-13163
-5752.76
-14535.5
-14539.6
-14214.3
-10795.3
-8252.69
-7950.69
-11574.7
-11557.7
-13906.4
-8924.27
-14475.9
-14038.4
-13447.2
-4284.05
-14540.3
-5818.49
-13743.1
-13759.5
-6266.96
-1318.39
-12369.3
-9878.52
-9970.81
-12837.9
-14558.2
-4614.38
-14164.2
-13823.8
-8741.06
-12962.2
-14061.9
-9487.22
-14627
-13299.7
-13291.7
-13633.5
-14300.2
-6105.62
-12715.9
-14578.5
-13173
-7097.47
-14506.5
-13461.8
-14081.7
-13889.2
-11578.5
-14528.4
-8413.43
-14466.8
-13581.1
-6862.75
-11763.1
-14214.9
-14519.5
-2817.24
-2963.58
-14431.6
-10814.4
-10991.2
-11876.9
-12063.2
-11395.1
-14698
-11871.6
-8330.61
-7249.39
-11395.2
-3239.43
-903.854
-14624.3
-4897.06
-4990.11
-14278.7
-14350.7
-3034.49
-5911.68
-12956.6
-10390.6
-10220.6
-11443.8
-12575.5
-12664.8
-8380.99
-13252
-12745.2
-8622.49
-10674.5
-11321
-13911.1
-4201.46
-13351.1
-3778.21
-13925.1
-1093.78
-14059.3
-13961.7
-9032.09
-2434.28
-8617.28
-6827.72
-13551.4
-13794.4
-10198.8
-14478.4
-3328.32
-13402.2
-13649.2
-13426.5
-13403.4
-2786.33
-8617.08
-14674.5
-5270.62
-7200.2
-6456.89
-7312.22
-2983.02
-14169.1
-13532.3
-14296.6
-11944.9
-14707.4
-10972.2
-13440.1
-2358.83
-12020.9
-14603.9
-6709.54
-13190.2
-7632.85
-14804.5
-14803.8
-8020.51
-13826.6
-9518.99
-14351.2
-12013
-14578.2
-8340.01
-13694.4
-12684.4
-3227.47
-9689.66
-9751.86
-6628.62
-13745.8
-13174.7
-7227.5
-9408.34
-14918.1
-13873.4
-11438.8
-12781.1
-13729.6
-14577.4
-14602
-13942.7
-9978.13
-14801
-14902.5
-12097.6
-5313.28
-5591.34
-14626.2
-12399.1
-14540.5
-14148.9
-14407.7
-12852
-14166.2
-14377.6
-12221.3
-12261.8
-13679.2
-2884.61
-12240.3
-10551.4
-9585.55
-9173.12
-11148.6
-11115.4
-2427.91
-13219.4
-13807.3
-13760.7
-11981.1
-11951.5
-13147.8
-13157.8
-11686.2
-6721.32
-13883.2
-4249.02
-10959.1
-12879
-14162.5
-14676.3
-1061.1
-12563.2
-7879.26
-14187.1
-14176.4
-5369.99
-13168.6
-9989
-6117.62
-13559.1
-14512.5
-4302.68
-13778.1
-13778.6
-13992.3
-14849.4
-13904.4
-14627.6
-14733
-426.279
-14621.7
-7765.75
-14160.2
-10718.5
-8740.63
-3904.57
-4296.67
-1612.17
-2993.88
-10590.3
-2910.15
-13811
-14485.8
-14473.8
-14664.3
-10536
-3474.92
-3297.84
-12899.1
-2790.3
-8471.15
-8409.83
-13875.3
-14475.1
-11000.7
-8616.57
-14328.6
-5808.29
-13712.1
-14117.9
-2815.82
-12314.9
-992.911
-989.628
-9283.05
-11590
-14937.6
-14612.6
-13071.6
-7358.75
-7579.47
-14030.1
-14001.4
-14518.7
-4103.72
-11598.9
-6883.74
-14605.2
-12127.7
-8175.7
-11527.4
-11596.8
-12815.3
-11191.1
-14874.9
-14910.6
-4050.21
-3942.11
-14556.6
-3561.95
-13900.9
-10837.7
-13650.1
-13727.6
-7740.43
-5168.28
-8886.08
-6081.56
-9127.52
-9999.72
-14089.5
-7575.64
-14277.1
-14248.2
-5394.29
-14548
-3577.64
-11693.5
-14590.1
-13175.7
-12800.6
-14530.7
-14627.2
-10676.9
-7549.05
-7195.84
-12258.7
-9688.75
-13664.5
-9515.53
-9684.08
-14620.1
-14799
-11961.5
-13816.3
-14722.2
-12768.5
-7845.14
-8060.11
-13944.1
-11287.8
-14925.2
-14928.1
-2955.05
-2709.74
-2613.13
-888.393
-1274.07
-14695.8
-14714.5
-13285.8
-5396.13
-12155.2
-3022.8
-11904
-11906.8
-12574.6
-14485
-4010.52
-13917.2
-14101.8
-14176.8
-9339.64
-11813
-14925.3
-13556.3
-14213
-9447.88
-13757.8
-8110.01
-12713
-14136.8
-1648.06
-1295.61
-3466.09
-13352.4
-3468.9
-14567.1
-8530.93
-8465.86
-3732.15
-11704.4
-7345.34
-12028.7
-10765.7
-14522.9
-5693.27
-13251.6
-14680.2
-1166.4
-12327.1
-9598.76
-13256.5
-14704
-13921.7
-9209.16
-14230.2
-12779.3
-9012.14
-1904.15
-11052.7
-14340.1
-11314.7
-11795.5
-1959.51
-13890
-13888.4
-8666.86
-12991.7
-7980.37
-7972.26
-9175.28
-13708.7
-11838.6
-11839.7
-11387.5
-14399.6
-1126.14
-1095.49
-3952.7
-3833.67
-14502
-14521.5
-14827.7
-10538.8
-14154.7
-7759.81
-8117.37
-13802.6
-4568.2
-5156.47
-9931.65
-14447
-12093.9
-13957.5
-13422.8
-13395
-10451.6
-12907.6
-12127.3
-11019.6
-10968.5
-14609.5
-14247.7
-12504
-12367
-8928.12
-14533.4
-14684.8
-13110.6
-2357.88
-14546.8
-12557
-14593.9
-14074.1
-13488.3
-14423.2
-14482.8
-13680.6
-13612.7
-14866.2
-13898.3
-7624.15
-7508.8
-11419.4
-14556.7
-6325.91
-9712.76
-3372.83
-3686.7
-13510
-14546.9
-11140
-8600.63
-14653.9
-13573.1
-11706.3
-11865.6
-14654.2
-13763.2
-14616.7
-10010.4
-14332.2
-7153.59
-13368.1
-14529.8
-14295
-7456.97
-11620
-12794.8
-12826.9
-14507.5
-9660.64
-13770.9
-13706.3
-13631.1
-6956.56
-14559.9
-14468.5
-12616.9
-5937.29
-14440.2
-14435.2
-10026.7
-14429.5
-8685.91
-9310.35
-14328.3
-10381.6
-13893.1
-14477.8
-9340
-5868.91
-10064.1
-4190.2
-8598.22
-8900.8
-13787.1
-13770.9
-13874.2
-12815.2
-3108.9
-14623
-11066
-14527.9
-14525
-2508.71
-7217.47
-14574.5
-12636.6
-2413.96
-13724.4
-14542
-14542.3
-7240.42
-14496.5
-12870.8
-11875.4
-8152.7
-11883.9
-14579.3
-8413.36
-14559
-14281.7
-13662
-12484.8
-14538.5
-740.191
-11709.2
-11848.8
-14309.4
-14275
-14698.6
-3369.27
-2819.05
-4431.23
-13199.2
-14536.3
-10805.5
-9163.76
-14282.9
-14300.9
-12543.1
-14105.3
-14131.8