/*--------------------------------*- C++ -*----------------------------------*\
  =========                 |
  \\      /  F ield         | OpenFOAM: The Open Source CFD Toolbox
   \\    /   O peration     | Website:  https://openfoam.org
    \\  /    A nd           | Version:  7
     \\/     M anipulation  |
\*---------------------------------------------------------------------------*/
FoamFile
{
    version     2.0;
    format      ascii;
    class       surfaceScalarField;
    location    "11";
    object      phi;
}
// * * * * * * * * * * * * * * * * * * * * * * * * * * * * * * * * * * * * * //

dimensions      [0 3 -1 0 0 0 0];

internalField   nonuniform List<scalar> 
19623
(
-8.04097e-07
1.8765e-06
-1.0724e-06
-6.66219e-06
3.31138e-06
3.35081e-06
4.2292e-06
2.45473e-06
-6.68393e-06
-8.77053e-07
3.29847e-07
5.47206e-07
4.45945e-06
4.08601e-07
-4.86805e-06
2.97116e-06
-5.04296e-06
2.0718e-06
3.01602e-06
-4.48679e-08
-4.6234e-07
-5.70142e-07
1.03248e-06
-1.25794e-06
3.86159e-07
8.71781e-07
-3.79493e-05
1.80602e-05
1.98891e-05
-3.39909e-05
-3.95843e-06
1.78767e-06
-4.02424e-06
2.23657e-06
-1.09774e-06
1.91196e-06
-8.14218e-07
4.72394e-07
-2.97008e-06
2.49768e-06
-2.62169e-06
4.89115e-06
-2.26947e-06
3.48075e-06
-1.96604e-06
-1.51471e-06
1.43671e-06
-1.07222e-06
-3.64487e-07
2.09292e-06
-1.46792e-06
6.41088e-07
-1.80728e-06
1.1662e-06
-3.86748e-07
1.02783e-06
3.78747e-06
-3.20409e-06
-5.83389e-07
1.9199e-06
1.80422e-06
-3.72412e-06
-1.51149e-06
3.26872e-07
1.18461e-06
6.19753e-06
-2.25503e-06
-3.94251e-06
-3.15312e-07
-4.25789e-07
7.411e-07
3.76481e-06
-4.08012e-06
6.75902e-08
-7.63701e-07
6.96111e-07
4.88092e-07
5.70941e-06
7.77781e-06
-5.99017e-06
-1.92212e-06
7.79924e-07
1.14219e-06
-1.73011e-06
-1.92004e-07
-3.34062e-07
2.24425e-07
1.09637e-07
-3.85857e-06
5.29273e-06
-1.43416e-06
-1.10885e-05
5.91392e-06
5.17462e-06
-7.37317e-06
-3.71535e-06
-2.16635e-06
-4.55342e-07
5.20822e-07
-4.11559e-07
-1.09263e-07
7.92337e-06
-8.31741e-06
3.94046e-07
1.18975e-05
-3.0728e-06
-8.82471e-06
6.95578e-07
-6.10018e-07
-8.55601e-08
2.18773e-07
2.66796e-06
-2.88673e-06
1.04565e-05
-1.02377e-05
-3.38744e-06
1.32922e-05
-9.90478e-06
-3.14843e-06
9.83972e-07
2.16445e-06
-6.05308e-06
-1.31728e-06
7.37036e-06
-5.37472e-06
5.85243e-06
-4.77708e-07
1.13195e-06
-1.27608e-06
1.4413e-07
-3.27305e-06
-1.34084e-05
1.66815e-05
-1.15832e-06
-2.11475e-06
-5.39602e-08
7.62564e-08
-2.22961e-08
-4.20204e-06
6.23621e-08
4.13968e-06
-6.15159e-06
1.94954e-06
4.24626e-06
-4.13244e-06
-1.13815e-07
1.19041e-06
-8.5237e-07
-3.3804e-07
4.84146e-06
-1.3421e-06
-3.49936e-06
-2.54792e-06
6.16376e-07
1.93155e-06
8.18039e-06
-8.16028e-06
-2.01087e-08
9.07099e-07
-5.23005e-07
-3.84093e-07
3.30011e-06
1.54135e-06
-4.4212e-07
-1.1491e-06
1.59122e-06
3.65994e-07
-2.60994e-07
-1.05001e-07
8.9977e-08
1.74262e-07
-2.64239e-07
-1.7424e-06
1.09974e-06
6.42655e-07
2.85254e-06
1.2267e-07
-2.97521e-06
-9.7647e-06
7.37703e-06
2.38767e-06
-5.3581e-06
-4.40662e-06
2.18138e-06
1.29937e-06
4.76176e-07
8.84577e-07
-1.36075e-06
-2.45675e-06
6.9162e-06
1.0934e-06
-1.43274e-06
3.39336e-07
-7.30647e-06
1.00272e-06
6.30375e-06
-1.84146e-06
-1.06342e-07
1.94781e-06
-3.54332e-06
3.54332e-06
4.68804e-06
-4.21187e-06
-7.17338e-06
2.86628e-06
4.3071e-06
-6.6623e-07
4.85751e-07
1.80479e-07
-6.82493e-07
3.91187e-07
2.91306e-07
-2.84298e-07
-5.91801e-07
8.76099e-07
1.21423e-06
-5.38701e-07
-6.75529e-07
-1.52876e-06
2.74299e-06
3.83704e-09
-6.94759e-07
6.90922e-07
6.20135e-06
7.07448e-07
-6.9088e-06
-2.14913e-06
-1.05144e-08
2.15964e-06
-4.77747e-06
2.62835e-06
-4.21551e-06
-2.95787e-06
-2.20148e-05
1.7687e-05
4.32777e-06
-7.7807e-06
-1.42341e-05
3.63375e-06
1.86622e-06
-5.49997e-06
4.11645e-06
-1.93841e-06
-2.17804e-06
1.66734e-06
2.44913e-06
-6.70136e-06
-3.97082e-06
1.06722e-05
6.39265e-07
1.59426e-07
-7.98692e-07
3.98481e-06
-2.48784e-06
-1.49697e-06
-1.22601e-06
5.21082e-06
-3.63088e-06
2.5314e-06
1.09947e-06
5.31116e-07
6.24656e-07
-1.15577e-06
9.60468e-06
-2.61403e-06
-6.99066e-06
-3.13473e-06
-7.23835e-07
2.00296e-06
-1.47186e-06
-1.35846e-06
9.20916e-07
4.37549e-07
-6.86957e-06
5.51111e-06
2.81558e-08
-2.52014e-06
2.49198e-06
3.55312e-07
-4.31215e-06
3.95684e-06
-1.3151e-06
-7.73052e-07
2.08815e-06
1.49549e-06
3.65107e-07
-1.86059e-06
-1.32927e-06
3.08248e-06
-1.75321e-06
3.67967e-06
-2.63277e-06
-1.0469e-06
-7.45186e-06
-1.72194e-05
2.46712e-05
-4.85647e-07
-1.80579e-07
1.18975e-05
-2.06151e-07
-2.70694e-08
2.33221e-07
6.2421e-06
-1.15634e-05
5.3213e-06
-1.38044e-05
2.00465e-05
-1.95529e-06
-2.5731e-08
1.98102e-06
-2.51801e-06
2.87333e-06
5.06784e-06
6.59739e-06
-1.16652e-05
3.7044e-07
8.19972e-07
-9.28305e-07
9.77811e-06
-8.84981e-06
1.61335e-06
-5.88924e-06
4.27589e-06
3.27444e-06
-5.0464e-07
-2.7698e-06
7.14888e-07
2.55956e-06
1.5538e-05
-1.5538e-05
-1.49718e-07
2.67165e-07
-1.17447e-07
-1.51116e-06
-3.29065e-06
4.80181e-06
-6.56271e-06
4.20364e-06
2.35907e-06
-6.99637e-06
4.33673e-07
2.89547e-06
8.92035e-07
1.40227e-07
9.61528e-07
-1.10175e-06
-1.0147e-06
1.40852e-06
-3.93825e-07
5.01147e-06
3.16893e-06
1.72777e-05
-3.71219e-06
1.10883e-05
-4.35266e-06
7.4864e-08
-9.2047e-07
8.45606e-07
8.35055e-06
-1.60633e-06
-6.74422e-06
3.26506e-06
-5.22036e-06
4.2757e-07
-9.8483e-07
5.5726e-07
-1.71964e-07
-5.10529e-07
9.41504e-07
3.15654e-06
-4.09804e-06
-8.24744e-07
-1.37964e-06
2.20438e-06
-1.20605e-06
-2.42483e-06
9.54768e-06
6.15516e-06
1.15318e-05
1.07563e-05
-4.6011e-06
5.83958e-06
4.0542e-06
-9.89378e-06
-7.45841e-06
1.3298e-05
5.16429e-07
1.40639e-07
-6.57068e-07
3.97701e-06
-1.47365e-06
-2.50337e-06
4.59757e-07
-3.95998e-06
3.50022e-06
3.00855e-07
-1.25885e-06
9.57992e-07
-1.63495e-07
1.28983e-06
-1.12633e-06
1.12e-05
-2.83491e-06
-8.36507e-06
-1.67923e-06
9.05626e-06
-2.5371e-06
8.57853e-07
8.31244e-06
-5.34601e-07
-4.91073e-06
6.86891e-06
-1.95818e-06
2.26253e-06
-4.81045e-06
7.58625e-06
-1.34762e-05
5.88994e-06
1.47145e-05
-9.67615e-06
-5.03834e-06
-1.21232e-05
5.46103e-06
-3.47953e-06
-4.2357e-07
3.9031e-06
9.53741e-07
-4.43329e-06
-7.25319e-08
7.9959e-06
-1.7995e-06
3.43095e-07
1.45641e-06
-1.26155e-06
2.03206e-06
-7.7051e-07
-7.64186e-07
-9.14691e-07
1.67888e-06
-3.44747e-06
2.28924e-06
1.15823e-06
-1.29716e-06
7.86277e-07
5.10879e-07
2.85253e-06
-2.17766e-06
-1.2698e-06
1.25281e-06
6.00859e-06
-7.26141e-06
8.05553e-06
1.03656e-05
-1.84212e-05
-5.86021e-06
6.08504e-07
5.25171e-06
-5.26411e-06
-5.96109e-07
-1.09273e-05
3.62086e-06
7.60267e-06
-4.41617e-06
-3.1865e-06
4.33251e-07
3.93238e-07
-8.26489e-07
3.35111e-06
5.32488e-06
-8.67599e-06
-2.07481e-06
-4.62654e-06
-7.14631e-07
-1.0035e-06
1.71813e-06
-2.39844e-06
1.38372e-06
6.81584e-07
-1.72386e-06
1.04227e-06
-5.6226e-06
-1.56361e-05
2.12587e-05
1.17114e-06
-5.4614e-07
9.76323e-07
-3.48331e-08
-3.13103e-06
-4.55512e-06
7.68614e-06
1.69478e-06
7.98497e-06
-9.67975e-06
-5.43805e-07
2.23856e-06
-7.05817e-07
1.13904e-06
-5.78548e-06
7.79829e-06
-2.01281e-06
-2.55518e-06
-5.55358e-07
3.11054e-06
-1.07384e-06
-5.55235e-06
6.62619e-06
-2.03885e-07
8.43148e-07
-4.19905e-06
5.37748e-06
-1.17843e-06
6.47248e-06
-9.0914e-06
2.61892e-06
8.67971e-07
-3.20343e-07
-5.47628e-07
-2.23695e-06
9.27982e-06
-7.04287e-06
-1.33004e-05
7.67773e-06
-2.4288e-06
3.22031e-06
-7.91502e-07
6.83133e-07
-4.28262e-06
3.59949e-06
5.66815e-06
-5.26323e-06
-4.04921e-07
-9.13712e-07
4.72456e-07
4.41256e-07
-1.45241e-06
-1.38424e-05
1.50494e-05
-1.20696e-06
6.91482e-08
-1.23112e-07
5.07938e-06
-1.15733e-08
-8.98293e-06
6.26586e-06
2.71707e-06
-5.52214e-06
2.39109e-06
1.2201e-05
1.77286e-05
-6.24049e-07
2.20591e-07
4.03458e-07
6.94786e-06
-4.64479e-06
-2.30307e-06
4.19168e-06
3.74985e-08
1.8784e-05
1.47651e-05
3.42907e-07
-3.43919e-09
-3.39468e-07
-1.94307e-06
1.6662e-06
2.76873e-07
9.33153e-06
-9.33153e-06
-8.9292e-07
-4.82837e-07
1.37576e-06
3.46565e-07
2.68146e-07
-6.14712e-07
-5.55417e-07
-6.86199e-08
3.25595e-06
-8.0123e-07
2.65139e-06
4.11245e-06
-5.3817e-06
-6.71385e-07
7.06669e-07
2.92137e-06
-3.62804e-06
3.00782e-06
2.74907e-07
-1.09965e-06
2.08621e-08
4.06536e-06
-4.08622e-06
4.43759e-07
7.7068e-08
8.02546e-07
-2.42785e-07
-5.59761e-07
1.33977e-06
7.53138e-07
1.1056e-06
-9.94216e-07
-1.11388e-07
8.89274e-08
1.86379e-07
-2.75306e-07
-1.99494e-08
7.31744e-08
-5.3225e-08
4.11351e-06
-5.31956e-06
-2.67338e-07
4.38083e-06
-1.72612e-06
2.19851e-06
-7.14977e-07
3.27196e-10
5.88967e-07
-5.21374e-07
1.27744e-05
-1.61618e-05
-1.40401e-06
2.40699e-07
1.16331e-06
2.93747e-06
-4.34147e-06
1.83264e-06
3.46008e-06
-1.30265e-05
1.43324e-05
-1.30589e-06
-4.10379e-06
-8.92275e-06
-3.10522e-07
6.84355e-07
-3.73832e-07
1.04695e-06
-2.07414e-06
1.02719e-06
1.15869e-06
-1.11755e-07
-3.18714e-06
2.17058e-07
6.31343e-07
-1.89442e-06
1.26308e-06
-3.14599e-06
3.77731e-06
2.25338e-06
-1.54968e-06
-7.03706e-07
-3.09453e-06
5.1413e-06
-2.04677e-06
-1.5879e-06
2.02685e-06
-4.38954e-07
-3.36717e-06
1.01878e-05
-6.82067e-06
8.4777e-07
-2.31362e-06
1.46585e-06
4.10624e-07
4.37135e-07
-1.08542e-05
-2.13518e-06
1.29894e-05
-6.20041e-07
4.24794e-07
1.95247e-07
-1.57063e-06
7.0885e-06
-5.51787e-06
2.06913e-05
-3.4135e-06
1.02162e-05
8.72106e-07
1.36989e-05
-7.06721e-06
-6.63172e-06
1.31273e-05
-8.34632e-06
-4.78097e-06
-1.44753e-07
-4.69717e-07
6.1447e-07
-5.59284e-07
3.37624e-07
2.2166e-07
-9.79854e-07
1.81066e-07
7.98788e-07
3.30689e-06
2.36125e-06
5.02195e-06
-7.54083e-07
-4.26787e-06
4.87302e-06
-1.88616e-07
7.05047e-07
4.07481e-06
-3.14582e-06
-9.28993e-07
-1.31181e-06
1.61184e-07
1.15062e-06
-9.83884e-07
7.12615e-07
2.71268e-07
-6.18308e-07
-3.65576e-07
-1.38397e-06
-2.15936e-06
3.00978e-06
-1.62755e-06
-1.38223e-06
-1.89489e-07
4.9436e-07
-3.04871e-07
1.08695e-05
-3.75466e-06
-7.11481e-06
1.13157e-07
-1.74627e-08
-9.56947e-08
6.92318e-07
-5.79159e-07
1.64589e-06
-5.52482e-07
1.62964e-06
8.49956e-07
-2.47959e-06
-2.60547e-07
-4.21033e-07
6.8158e-07
-3.0822e-06
1.92632e-06
1.15588e-06
3.3957e-06
-6.47789e-06
-5.03791e-07
-8.11286e-07
-1.99794e-06
2.9986e-06
-1.00066e-06
5.96366e-06
-2.95077e-06
-3.01289e-06
1.85641e-06
4.10724e-06
9.21433e-07
-5.32348e-07
-3.89085e-07
-6.66533e-06
1.3103e-05
-6.43766e-06
7.76396e-07
2.61451e-08
-1.50345e-08
-2.69258e-07
-2.00381e-05
1.75684e-05
2.46977e-06
-1.09314e-05
6.62208e-06
4.30935e-06
7.72198e-06
-6.76641e-06
-9.5557e-07
-7.95718e-07
-5.16094e-07
-5.96927e-07
7.85267e-07
-1.8834e-07
3.74907e-07
-5.3394e-08
-3.21513e-07
7.32566e-08
3.0167e-07
-7.19518e-07
-1.49453e-08
7.34463e-07
-6.46196e-07
-7.33096e-08
8.65117e-06
-2.70099e-06
-5.95019e-06
-1.10633e-06
4.76404e-06
-3.65772e-06
1.0581e-06
-9.81988e-07
-7.61075e-08
3.09464e-09
1.05499e-06
1.18391e-05
-5.5227e-06
-6.31641e-06
1.56646e-05
-9.50111e-07
-3.18022e-06
5.57636e-06
-2.39614e-06
3.80817e-06
-7.6947e-06
3.88653e-06
-2.94019e-07
-5.83032e-07
-2.63945e-06
1.12906e-05
-2.33189e-06
3.33941e-07
1.53451e-06
-1.20039e-06
-3.34121e-07
7.55695e-07
-5.20747e-06
4.45177e-06
-5.31985e-07
1.84334e-06
-1.31135e-06
8.91418e-07
2.79716e-07
3.62682e-07
-5.12398e-07
7.12479e-07
-3.49796e-07
-8.71381e-07
-1.07169e-06
6.76825e-07
-1.23259e-06
5.55765e-07
-9.25653e-06
2.25162e-06
7.00491e-06
-1.03498e-06
3.51752e-06
-2.48253e-06
-2.65627e-07
1.34328e-06
-1.07765e-06
-1.28671e-06
1.10438e-06
1.82332e-07
-1.8124e-06
5.257e-07
-1.3752e-06
-8.50506e-07
2.22571e-06
-4.72373e-07
4.96027e-07
-2.36541e-08
-1.40076e-06
7.5847e-06
-6.18394e-06
1.55166e-06
-1.01845e-06
-5.33207e-07
-5.27189e-06
2.00405e-06
3.26785e-06
7.88137e-07
-9.51649e-07
-7.05739e-06
2.17677e-06
4.88062e-06
-2.16623e-06
-5.71528e-06
9.53872e-07
4.76141e-06
-1.10353e-06
-4.61172e-06
5.07882e-06
4.52586e-06
1.75781e-06
-6.78855e-07
-1.07895e-06
4.66715e-06
-2.90933e-06
-2.0831e-06
3.18807e-06
-1.10497e-06
8.73449e-07
6.61065e-07
-9.60378e-06
-6.66107e-06
1.62648e-05
2.56967e-06
-9.40002e-07
-1.06323e-06
-6.79177e-07
1.19688e-06
-1.09235e-06
-1.04527e-07
-1.70869e-05
-1.87971e-06
1.89666e-05
-8.11013e-06
-8.97674e-06
-6.97282e-07
6.82246e-07
-2.03967e-06
1.31418e-06
7.25498e-07
7.72745e-07
-2.81241e-06
-5.74805e-07
6.90528e-07
-1.15722e-07
7.81033e-06
-1.08068e-05
2.99649e-06
7.32253e-06
4.87794e-07
-4.99681e-07
-7.97492e-07
4.63561e-06
-4.17583e-06
-3.00565e-06
1.65006e-06
1.35558e-06
-1.6654e-06
-1.34024e-06
1.95012e-08
-1.05871e-06
1.03921e-06
-1.28861e-06
1.11578e-06
1.72831e-07
-1.00534e-06
-2.83272e-07
-4.45679e-07
2.56198e-07
-3.09752e-06
2.85986e-06
2.3766e-07
2.57443e-06
-2.49324e-06
-8.11959e-08
-6.02875e-07
1.38914e-06
-6.09092e-06
7.97617e-07
5.2933e-06
-3.50684e-06
6.69526e-06
-1.31786e-05
6.48335e-06
-1.04999e-05
5.12519e-06
-3.93421e-07
1.83014e-06
2.59587e-07
-1.98748e-06
1.7279e-06
-3.74363e-07
6.33944e-07
-2.89345e-06
6.56513e-07
5.33146e-07
-6.54264e-07
1.21118e-07
1.59909e-06
-8.94642e-07
-7.04444e-07
-8.67987e-06
7.10922e-06
7.92442e-06
-2.18083e-06
-5.74359e-06
1.17028e-06
-4.39151e-07
-7.31133e-07
-5.7364e-08
-2.22486e-07
2.7985e-07
-5.18681e-06
7.11313e-06
-1.27148e-05
2.43e-06
1.02848e-05
4.68322e-06
-2.03185e-06
2.66942e-06
3.02313e-06
-5.69255e-06
-1.12503e-06
2.73836e-06
-8.54331e-06
8.42762e-08
8.45904e-06
4.14924e-07
4.5305e-07
-3.13057e-06
2.22736e-06
9.03211e-07
1.26851e-06
-3.13087e-06
1.86236e-06
-6.76912e-06
1.49723e-06
2.3825e-06
9.1563e-07
-6.41604e-07
-2.74026e-07
-8.6094e-06
9.0913e-06
-4.81909e-07
8.4503e-07
3.49523e-06
-4.34026e-06
-1.57014e-06
1.46281e-06
1.07327e-07
-1.34786e-06
4.58948e-07
8.88913e-07
-1.09217e-06
-2.55681e-07
2.01786e-06
-5.74886e-06
3.731e-06
2.00733e-06
2.36944e-06
-1.64339e-06
-7.26052e-07
-5.69411e-08
5.9009e-07
1.61685e-06
4.58449e-06
4.88313e-06
-2.50063e-06
1.8436e-06
1.09387e-06
-1.40405e-06
1.20323e-05
-1.06282e-05
-6.26388e-06
4.85981e-06
-3.61341e-06
-1.53163e-06
5.14505e-06
-6.5599e-07
3.41645e-07
3.14345e-07
1.58604e-07
1.68499e-06
-8.92862e-06
7.21582e-06
1.7128e-06
5.03381e-07
-6.48132e-07
-6.83643e-08
1.04545e-07
-3.61808e-08
-1.09591e-06
-3.04869e-07
1.74555e-06
-4.5824e-06
2.83685e-06
-1.16561e-06
2.91114e-06
-6.82148e-06
7.98057e-06
-1.15909e-06
-3.12084e-06
5.22146e-06
-2.10062e-06
3.69769e-07
7.61646e-07
-1.13142e-06
-1.26209e-07
-1.40453e-06
1.53074e-06
-1.33367e-07
1.52865e-07
2.18042e-05
-9.27306e-06
-1.25311e-05
2.46472e-06
-2.75808e-06
2.93355e-07
-1.59276e-06
-1.53123e-06
3.12399e-06
-1.58284e-06
3.87209e-06
-1.62446e-06
3.11995e-06
1.05901e-06
-1.24031e-06
1.81301e-07
1.50567e-06
-4.46677e-07
1.52694e-06
-1.09687e-06
-4.30067e-07
-4.0086e-06
-8.70626e-06
-8.4186e-07
8.97149e-07
-5.5289e-08
2.28305e-06
-2.19041e-06
-9.26395e-08
4.71122e-06
-4.71122e-06
-1.26497e-06
2.58701e-06
-1.32205e-06
5.52249e-06
2.06373e-06
7.74892e-08
-5.43975e-06
5.36226e-06
2.17247e-06
-4.01733e-06
1.84486e-06
-1.07939e-07
-1.75593e-07
2.83533e-07
2.45228e-06
-2.08718e-06
8.9192e-06
2.91994e-06
1.46182e-06
-2.97332e-06
-1.26502e-06
4.6499e-07
8.00029e-07
-8.44096e-06
5.95317e-06
2.93197e-06
-2.14856e-06
-7.83404e-07
-3.33851e-06
4.49134e-07
2.88938e-06
1.2242e-06
-1.3828e-05
1.26038e-05
2.18214e-06
-2.87585e-06
7.92734e-07
-1.86409e-06
3.92511e-06
-2.06102e-06
-3.89603e-07
-2.07328e-07
-2.64801e-05
2.64801e-05
-2.42929e-07
3.64651e-08
2.06464e-07
2.51645e-07
-1.56625e-06
1.31461e-06
9.81367e-07
-7.83036e-07
-1.98331e-07
2.42054e-06
-5.10945e-08
-5.04908e-06
3.3396e-06
1.70948e-06
-2.92801e-07
-4.75626e-06
-2.54512e-08
3.06396e-07
-2.80945e-07
3.42137e-06
-8.80168e-06
5.38031e-06
3.16263e-06
4.67541e-08
-3.20938e-06
-9.64377e-07
1.38269e-06
-4.18314e-07
5.39558e-07
-5.89466e-07
4.99079e-08
1.03676e-06
-3.85062e-07
-6.51702e-07
-1.06754e-06
7.57016e-07
1.34805e-06
1.63612e-07
-1.51166e-06
1.05865e-06
-5.08686e-07
-5.49965e-07
-7.28791e-06
-1.26636e-05
1.99515e-05
1.20662e-07
-9.73034e-07
1.45577e-06
-9.15838e-07
-5.39928e-07
-3.43529e-07
-6.44793e-07
9.88323e-07
4.74357e-06
3.18084e-06
1.89877e-06
5.65943e-07
4.1863e-07
-1.28526e-06
8.66627e-07
5.18436e-07
-2.10355e-06
1.58512e-06
-9.30444e-07
1.44888e-06
9.87986e-06
3.81908e-06
1.00863e-06
-6.68699e-07
-3.39934e-07
4.61008e-07
5.99264e-06
2.35793e-06
-6.3596e-06
7.58375e-06
-6.87658e-07
9.88513e-07
6.86225e-06
-7.995e-06
1.13275e-06
-1.30137e-06
6.13709e-07
-7.24204e-07
5.52237e-07
-6.30861e-07
-9.33436e-08
1.15077e-06
-1.13993e-07
-8.92528e-06
4.61314e-06
-6.14819e-07
6.89689e-07
8.07024e-06
-1.14505e-05
3.38021e-06
-2.98849e-06
1.63317e-05
-1.33432e-05
-1.39224e-06
-1.03657e-06
4.74746e-06
-7.85317e-06
3.10571e-06
-3.3381e-06
3.07247e-06
1.21647e-05
-1.96166e-05
-6.41306e-07
6.21358e-07
4.13067e-06
-2.22755e-06
-1.90312e-06
4.57169e-07
-8.11592e-07
3.54423e-07
-1.57502e-05
1.74083e-05
-1.65814e-06
-7.77728e-07
-2.02136e-07
-1.08471e-05
2.50215e-06
8.34494e-06
-2.22391e-06
2.90705e-06
1.59097e-06
4.71052e-07
-2.06202e-06
-7.40083e-07
2.92144e-06
-3.62805e-06
8.14829e-06
-4.52024e-06
4.28622e-07
-4.29121e-07
4.99471e-10
-1.29569e-06
-1.01789e-07
5.58955e-07
-1.65431e-05
9.68983e-06
6.85323e-06
-8.79432e-07
1.0211e-05
-2.85687e-07
2.09574e-07
7.61133e-08
8.19808e-07
-1.41161e-06
3.4193e-07
-1.5329e-08
-3.26601e-07
1.81011e-06
1.04716e-06
-2.85726e-06
8.23296e-06
-1.11837e-05
1.55983e-05
-7.36528e-06
-5.09769e-06
-5.74942e-06
-1.23974e-06
-1.10046e-06
2.3402e-06
-8.58383e-06
7.47751e-06
8.07872e-06
-5.24743e-06
-2.83129e-06
-1.52673e-06
-1.0071e-06
2.53383e-06
7.01228e-07
3.12228e-06
-3.8235e-06
-7.80888e-07
1.20277e-06
-4.21882e-07
2.15816e-06
-1.37134e-06
-7.86822e-07
-4.72408e-06
-1.10261e-05
-8.87482e-07
3.12673e-07
3.42963e-08
5.466e-08
-8.89563e-08
-1.67706e-06
1.71134e-06
-7.65673e-06
4.1984e-06
3.45833e-06
-4.2279e-06
5.01139e-06
-7.83497e-07
-3.82159e-06
-4.06297e-07
7.06146e-07
-2.4791e-07
-4.58236e-07
1.77793e-06
-7.83513e-07
-9.94421e-07
-1.4647e-06
6.1526e-07
8.49436e-07
8.06704e-07
-3.55548e-06
2.74878e-06
3.80051e-07
4.26657e-07
5.269e-07
-7.91332e-07
2.64433e-07
-3.86477e-06
2.272e-06
3.02213e-06
-3.76269e-06
7.40561e-07
-2.06114e-05
8.78131e-06
1.18301e-05
4.37408e-07
1.0227e-06
-1.46011e-06
2.15934e-06
-1.72192e-06
-6.79615e-06
-4.42857e-06
1.12247e-05
-5.04377e-06
9.70371e-07
4.0734e-06
-5.98863e-06
9.44864e-07
1.79922e-08
2.14165e-06
-3.94497e-06
1.10479e-06
2.84018e-06
3.89205e-07
-6.49753e-07
-1.40817e-05
-1.55434e-06
2.04878e-07
9.65417e-07
-2.46574e-06
-6.55107e-07
-3.70381e-06
1.76284e-07
3.4651e-07
-5.22794e-07
-5.00505e-06
5.0332e-06
1.75257e-06
-1.23403e-06
-5.18543e-07
-5.98284e-07
-8.66397e-07
2.4129e-06
-1.77494e-06
-6.37963e-07
3.40524e-06
-9.92327e-07
-2.78199e-06
9.05074e-07
1.87691e-06
6.021e-08
-2.84218e-06
-5.40889e-07
9.56061e-08
4.45282e-07
1.33469e-06
1.92243e-07
2.78707e-06
-1.4915e-06
-1.29557e-06
3.47617e-06
-3.13541e-07
-7.10229e-07
5.04086e-07
2.86832e-06
1.26698e-05
7.00293e-07
-1.14243e-06
1.11484e-06
-2.17207e-06
1.05723e-06
-1.29259e-06
1.88962e-06
-5.9703e-07
1.84677e-07
1.57265e-07
5.69167e-07
-6.29499e-07
6.03325e-08
-8.71688e-07
7.81682e-08
7.93521e-07
-9.26162e-06
3.55317e-06
5.70845e-06
-3.69715e-06
-1.03846e-05
-6.97302e-07
3.59919e-06
-2.90189e-06
6.01963e-07
3.20623e-06
1.23932e-05
-1.23841e-05
-9.03861e-09
5.57167e-06
9.73987e-07
-1.78641e-06
8.12424e-07
2.7579e-07
-6.70737e-07
3.94948e-07
6.41322e-07
1.62033e-06
-2.26165e-06
-1.06253e-06
2.58426e-07
2.58094e-06
-1.48814e-06
-1.0928e-06
3.7136e-07
-1.63292e-06
1.78166e-06
2.84053e-08
5.32682e-06
-5.32748e-06
6.62332e-10
-1.01148e-05
5.10984e-07
4.2155e-08
-5.35922e-07
4.93767e-07
-3.90919e-06
6.3725e-07
3.27194e-06
-5.44044e-06
-4.69279e-06
-1.7173e-06
2.07466e-06
-3.5736e-07
1.94346e-06
-1.52351e-06
-4.19948e-07
1.31057e-07
5.89606e-06
-2.25141e-06
-3.64466e-06
7.36092e-06
-1.46486e-06
7.57754e-06
4.9273e-07
-7.56076e-08
-5.68465e-07
6.44073e-07
-5.29803e-06
3.94827e-06
1.34976e-06
-3.86011e-07
-8.53745e-07
-2.62372e-06
5.27713e-06
-2.65341e-06
-5.24744e-06
4.49335e-06
2.24938e-07
1.41055e-07
-4.2446e-09
-9.6013e-07
6.86578e-07
5.10295e-07
-3.85715e-07
1.2887e-06
-9.02987e-07
6.30345e-07
-7.05955e-07
-4.70589e-07
-1.25368e-07
5.95957e-07
1.14451e-06
-1.61509e-06
-1.72086e-05
1.32e-05
1.77205e-07
7.90152e-06
8.51627e-07
-1.50938e-06
-3.54713e-07
9.24207e-07
-9.99451e-07
7.52435e-08
-4.1258e-07
-2.07456e-07
4.72926e-07
-5.84422e-08
-4.14484e-07
-6.35479e-08
1.92973e-06
2.09653e-07
1.82241e-06
2.17378e-05
6.63658e-08
-7.98245e-06
6.3221e-06
1.66035e-06
-2.20617e-08
-2.81964e-07
3.04026e-07
7.61384e-06
3.25566e-06
-5.19337e-06
5.58983e-06
-3.96453e-07
3.23662e-06
4.81892e-06
-8.99822e-07
-3.9276e-07
-7.39898e-07
5.9507e-07
1.44828e-07
1.59443e-05
-1.59443e-05
6.65152e-07
-1.42935e-06
-1.04162e-06
-3.05927e-08
-5.49575e-06
1.24557e-05
-6.95996e-06
-1.60624e-05
1.05667e-05
5.00404e-07
-5.3005e-07
3.11098e-06
5.61967e-06
6.57093e-07
-6.27676e-06
2.63921e-06
1.47872e-07
-1.89863e-07
5.285e-07
-3.38637e-07
5.46868e-07
-7.36726e-07
-5.01386e-06
2.7901e-06
2.22375e-06
-6.47776e-07
-2.44674e-06
2.99939e-06
2.62026e-06
8.52799e-08
-2.70901e-06
5.43683e-07
-1.38553e-06
5.02456e-07
5.56205e-07
1.00358e-06
1.01728e-06
-2.02086e-06
-1.84854e-06
1.22421e-07
1.37156e-06
-9.64943e-07
-4.06621e-07
-1.65686e-05
1.35801e-05
-2.45234e-06
3.42632e-06
1.1829e-06
1.10655e-08
-1.19396e-06
2.5991e-07
-5.93972e-07
-8.759e-06
9.13984e-06
-3.80841e-07
-9.81759e-07
-1.14023e-05
-2.54217e-08
-2.13475e-07
2.38897e-07
-3.93432e-06
1.01752e-05
-6.24089e-06
9.34373e-06
-9.0248e-06
-3.18923e-07
-1.10639e-06
7.79507e-07
3.26884e-07
7.33989e-07
-1.84038e-06
-3.99877e-07
-4.46208e-06
4.86195e-06
-3.7774e-07
-2.78239e-07
3.01321e-07
2.85248e-08
-5.271e-07
3.10154e-06
1.19117e-06
-2.0981e-07
-4.39481e-06
2.19762e-06
2.19718e-06
-2.93112e-05
-7.65805e-06
-7.47167e-07
8.40522e-06
6.94815e-07
8.10847e-07
7.52095e-06
8.17298e-08
1.15896e-06
1.7648e-08
-1.17661e-06
-1.41024e-07
1.59017e-07
2.21015e-07
2.15431e-06
-2.37533e-06
7.2905e-07
-5.08023e-07
2.09807e-06
-9.83518e-07
-1.11456e-06
1.34478e-06
7.53292e-07
-5.34089e-07
5.34089e-07
-3.02435e-07
1.57096e-06
-6.45043e-07
-4.16563e-07
1.06161e-06
-2.61809e-06
1.51763e-06
-8.71794e-07
-3.86144e-07
-1.46929e-06
4.50594e-07
1.0187e-06
1.28206e-06
1.737e-07
5.27911e-06
-1.2567e-05
-4.44252e-07
-2.70726e-07
3.17216e-06
-2.46471e-06
-2.98202e-07
-1.6999e-07
4.68193e-07
-1.78399e-06
2.13058e-06
2.65422e-07
3.59011e-08
-1.19491e-06
1.46033e-06
1.4199e-07
-6.93816e-06
-9.08337e-08
5.18412e-07
7.33898e-07
-8.39194e-06
3.70328e-06
-5.53027e-06
1.827e-06
-9.47526e-07
-1.09988e-06
2.04741e-06
2.12575e-06
-3.07324e-06
8.09362e-08
3.601e-07
-4.41037e-07
-1.6743e-06
2.64988e-07
1.40932e-06
2.52048e-07
-1.92636e-06
7.68775e-06
3.88677e-06
-1.15745e-05
6.49187e-06
6.18862e-06
-1.26805e-05
2.31758e-07
-6.03668e-09
-2.25722e-07
-2.48783e-07
4.80548e-07
-7.25258e-07
3.01369e-06
-2.28843e-06
6.43168e-07
2.50657e-06
-7.28621e-07
-1.45826e-06
1.3914e-05
2.25221e-07
-2.93586e-07
3.81788e-07
-2.36523e-07
-1.45266e-07
7.80177e-07
-9.03321e-07
1.23144e-07
2.31e-06
-1.19518e-06
-1.30982e-05
1.59148e-05
-2.81663e-06
-1.1285e-06
-2.00766e-07
-1.20858e-06
1.9779e-06
-7.69324e-07
-1.39219e-06
1.83604e-07
-1.51152e-06
1.48944e-06
3.91088e-06
-3.2042e-06
-4.81474e-07
2.04297e-07
2.77176e-07
-4.82697e-08
1.06612e-06
-1.01785e-06
-3.11482e-06
2.88512e-06
2.29707e-07
-6.62552e-07
-2.03269e-05
5.13267e-06
1.51942e-05
5.66545e-06
5.76333e-06
-1.14288e-05
-6.89558e-07
-4.09005e-07
1.54096e-06
4.44793e-07
9.26776e-07
1.04676e-05
-4.50271e-06
-5.96488e-06
-8.16996e-06
1.22408e-05
-4.07081e-06
6.57819e-06
-6.00508e-06
-5.73113e-07
-1.30276e-06
1.34713e-06
-4.43763e-08
-1.74391e-06
7.19138e-07
1.02477e-06
-1.16284e-06
8.14202e-07
3.48635e-07
6.41684e-08
-9.62959e-07
8.98791e-07
1.43935e-06
-1.86569e-07
1.22654e-05
-6.02135e-06
-6.24401e-06
-1.6822e-06
9.68271e-07
7.13932e-07
-9.7003e-07
1.36502e-07
8.33528e-07
9.09836e-08
9.60566e-07
-1.05155e-06
7.31007e-06
-5.59697e-06
-1.7131e-06
-1.03429e-06
-4.85495e-06
-9.47801e-07
1.83287e-06
-8.85071e-07
3.99016e-06
-1.32076e-06
6.50833e-07
5.03851e-08
5.72032e-07
1.02705e-06
3.55128e-07
-3.55128e-07
-1.27637e-06
6.60319e-06
3.76114e-06
2.31023e-06
-6.07136e-06
-2.22752e-06
-8.91355e-07
1.51446e-07
2.3717e-06
6.44638e-07
-3.01634e-06
8.07929e-07
1.56374e-06
1.30005e-06
-9.30272e-07
-5.06636e-06
3.92825e-06
1.13811e-06
2.11124e-06
-5.72885e-06
3.61761e-06
-4.4006e-06
2.08244e-07
4.19236e-06
-1.54902e-06
6.26342e-07
9.22676e-07
6.98776e-06
7.34225e-07
6.15273e-07
5.55925e-07
-1.1712e-06
-1.38898e-05
8.33267e-06
5.55714e-06
-1.34917e-06
-1.94149e-06
1.58966e-07
-1.42394e-06
-6.19736e-06
-4.7341e-06
-4.17585e-07
3.17872e-06
2.35594e-06
-5.53466e-06
1.33585e-06
1.88446e-06
-1.38761e-06
-3.29676e-07
4.20954e-06
-6.82348e-06
2.61393e-06
8.85012e-07
-1.04808e-07
-6.49223e-07
1.15093e-06
-5.0171e-07
-1.02935e-05
-5.91618e-06
1.62097e-05
-5.11088e-06
7.16067e-07
-6.29937e-07
7.0644e-08
-2.00168e-06
8.26623e-07
1.17506e-06
-5.33022e-06
6.69705e-08
-6.47741e-07
2.89877e-06
-2.25103e-06
2.84801e-06
1.89947e-06
-1.4707e-06
1.00151e-06
4.69194e-07
-8.58341e-06
-4.29882e-07
9.01329e-06
-1.61095e-05
7.52608e-06
4.34871e-08
-2.8628e-07
-3.25047e-08
-2.53162e-07
4.90695e-07
-7.20754e-08
-5.03279e-07
-2.76656e-07
7.79935e-07
-2.12429e-06
1.59719e-06
-6.84912e-06
-7.75195e-07
3.82849e-07
-3.01908e-07
-6.28815e-07
1.31041e-06
-9.59223e-06
9.86097e-06
-2.68737e-07
-9.88846e-07
1.499e-06
-5.10153e-07
-1.05275e-05
1.4187e-05
-3.65951e-06
5.32676e-06
-5.21247e-06
-1.14283e-07
-4.49021e-06
9.81696e-06
4.80153e-07
-1.09203e-06
6.1188e-07
-4.96638e-07
-8.17052e-07
1.31369e-06
-1.62064e-06
1.12402e-06
-5.56669e-06
3.88447e-06
1.64167e-06
-4.1423e-06
-9.44356e-06
-3.65457e-06
1.10173e-06
-1.62089e-06
5.19157e-07
-1.95646e-06
-3.10991e-06
-1.2081e-06
3.8093e-06
-2.6012e-06
7.27455e-06
-1.74106e-06
-5.53349e-06
9.1231e-07
-2.7124e-07
-6.4107e-07
1.04436e-06
-4.14188e-06
7.56882e-07
-6.51815e-07
-1.05067e-07
-2.24158e-06
-5.91885e-06
-2.30262e-06
3.99122e-06
-1.68861e-06
4.2011e-06
3.77949e-06
-3.99976e-07
-5.20484e-07
-6.83474e-06
7.43843e-07
1.58142e-06
-1.57488e-06
-6.54253e-09
-9.97388e-07
1.14607e-06
-1.48683e-07
8.00443e-08
2.75089e-07
-5.43565e-07
6.02051e-07
-5.84859e-08
2.38549e-06
-2.56318e-06
1.77688e-07
3.23574e-06
-1.90105e-06
-1.33469e-06
5.54132e-06
-9.52606e-06
3.98474e-06
-2.89299e-06
-5.548e-06
4.40739e-06
-1.60352e-06
-2.80386e-06
-1.66948e-06
8.88532e-06
6.50051e-06
-2.03049e-05
7.60358e-06
-6.62288e-06
-9.80702e-07
1.2995e-06
9.5388e-07
-4.64281e-09
-2.07823e-08
-9.27947e-06
1.87828e-06
7.40119e-06
-1.01631e-05
8.83598e-07
1.03551e-06
7.00876e-08
-1.60463e-06
1.84448e-06
-2.39846e-07
2.87598e-06
-1.7658e-06
-1.11018e-06
5.71037e-07
2.30494e-06
-2.54177e-07
3.44156e-07
-2.66254e-06
-3.65515e-06
-5.10388e-06
-1.57678e-07
7.37995e-08
8.38785e-08
-1.07622e-06
-1.47021e-06
2.54643e-06
-1.41589e-07
1.63568e-07
-2.19793e-08
9.12103e-08
-1.16742e-06
5.19371e-07
-1.7646e-07
-1.43759e-06
1.86574e-06
-4.28153e-07
-2.83405e-06
-2.35933e-06
-2.45418e-06
-2.84384e-06
-2.86414e-05
1.20984e-05
-2.5483e-05
-3.15839e-06
5.29735e-06
1.28087e-06
-8.96949e-07
7.40006e-06
-6.50311e-06
-1.21836e-07
-3.38291e-07
4.60127e-07
6.00209e-06
4.89807e-07
-7.13825e-07
-3.68678e-06
1.47777e-06
1.72401e-07
-1.65017e-06
-5.27107e-07
-1.06079e-06
3.05178e-06
-2.95775e-06
-9.4031e-08
5.15143e-06
-2.09964e-06
-3.55517e-06
-4.29797e-06
2.5916e-06
-1.03003e-07
-2.4886e-06
1.10163e-06
1.86736e-06
-2.96899e-06
9.84397e-07
-7.68761e-07
-2.15636e-07
6.03727e-07
3.41615e-07
-9.45343e-07
6.47386e-06
-2.71282e-06
-3.76104e-06
6.63657e-07
1.0889e-06
7.36797e-07
9.29407e-07
6.3285e-07
-1.22271e-06
5.89859e-07
1.02838e-05
-2.57896e-05
1.55058e-05
-7.22506e-07
7.86672e-07
-1.33486e-06
3.20952e-08
1.0129e-05
-1.20588e-05
1.92987e-06
2.68442e-06
-3.33218e-06
3.85274e-06
1.83237e-06
-5.6851e-06
-1.09049e-06
-7.23395e-08
6.77822e-07
7.00995e-06
5.57328e-06
1.19327e-06
-6.76655e-06
-1.80274e-07
-5.06125e-07
6.86398e-07
1.43933e-06
5.03315e-06
-8.29588e-06
6.01195e-07
-1.54973e-06
-2.02484e-06
3.57457e-06
1.17589e-07
-7.66821e-07
5.32531e-07
-8.34347e-07
3.01816e-07
-2.59516e-07
7.92056e-07
5.14491e-06
-5.56629e-06
4.2138e-07
1.75834e-06
2.62462e-07
-2.0208e-06
-5.02308e-06
4.35776e-06
6.65321e-07
4.5937e-07
-3.38703e-07
-9.29666e-08
-7.75589e-07
8.68555e-07
4.29732e-06
5.83167e-06
2.2319e-07
1.14427e-07
6.19271e-06
-1.70015e-07
-6.0227e-06
-2.2505e-07
-2.56432e-07
2.47942e-07
-7.20293e-07
-8.45413e-06
-3.37519e-06
1.18293e-05
-4.62307e-06
2.82356e-06
1.5776e-06
-2.53279e-06
9.55195e-07
1.00877e-06
-1.70555e-07
6.90221e-07
-5.19666e-07
9.45352e-07
-7.4354e-07
-2.01812e-07
8.49704e-07
-8.02952e-07
-1.76227e-06
2.61197e-06
3.02348e-06
-1.35647e-09
2.52747e-06
7.94012e-06
2.02235e-07
-3.95696e-07
1.9346e-07
-1.35076e-06
-1.19942e-07
-1.92559e-05
1.92559e-05
3.89868e-07
-3.79501e-07
-1.03666e-08
1.38273e-06
1.5763e-06
-2.95903e-06
-2.1939e-06
8.76604e-07
-9.14097e-06
-2.79262e-06
1.19336e-05
4.23501e-07
1.45661e-07
1.62328e-06
-9.76584e-07
-6.46697e-07
6.74972e-07
4.63165e-07
-1.13814e-06
-9.02923e-06
3.35826e-06
5.67097e-06
1.926e-06
-1.301e-06
1.72931e-07
-3.86407e-07
-1.94561e-06
4.16862e-07
-7.92016e-06
7.52031e-06
3.9232e-07
3.97323e-06
3.78797e-09
-1.38798e-06
-2.50922e-05
6.19075e-06
-9.81879e-06
-2.25158e-06
6.45264e-07
-1.41379e-05
1.18864e-05
7.09717e-06
-8.70179e-06
-3.85459e-07
-4.36636e-07
8.22096e-07
8.06409e-06
1.21575e-06
2.02502e-07
3.19321e-06
-3.08986e-08
2.33405e-07
4.38693e-06
-4.04065e-07
2.12685e-07
1.9138e-07
2.01004e-06
-2.41411e-06
-8.69372e-06
1.31773e-06
7.37598e-06
1.74409e-06
1.32402e-07
-5.2213e-09
-5.97669e-07
9.6277e-07
-1.48052e-05
1.57377e-06
-6.42862e-07
-9.30912e-07
-2.08844e-06
7.13241e-07
6.18915e-07
-2.23954e-06
-7.48761e-07
1.5014e-06
-7.52636e-07
-1.93994e-07
-1.24359e-06
6.11358e-07
3.90152e-07
-2.68543e-08
-1.76558e-08
4.451e-08
-1.62524e-07
1.3568e-07
-2.20102e-06
-6.11638e-06
1.69565e-07
1.40269e-06
-1.57225e-06
5.82749e-06
3.48346e-07
-6.17583e-06
-1.22402e-06
1.3346e-06
-1.10579e-07
-3.69665e-06
3.37821e-06
3.18445e-07
-4.89652e-07
-9.79632e-07
-1.64577e-06
-2.48668e-06
8.2067e-07
-3.02738e-06
2.20671e-06
3.50795e-07
4.69882e-07
-7.18386e-08
-1.21202e-06
1.28386e-06
-4.78487e-06
5.44195e-06
1.49148e-06
3.06318e-06
-4.55466e-06
2.06462e-06
1.02448e-06
-3.08909e-06
1.54622e-05
4.00399e-06
-1.94662e-05
2.12927e-06
1.33329e-05
-2.05866e-06
4.21833e-06
-2.15967e-06
-1.25416e-06
-9.03934e-06
1.82908e-06
-9.46113e-07
-8.82963e-07
4.67301e-06
-3.63049e-06