/*--------------------------------*- C++ -*----------------------------------*\
  =========                 |
  \\      /  F ield         | OpenFOAM: The Open Source CFD Toolbox
   \\    /   O peration     | Website:  https://openfoam.org
    \\  /    A nd           | Version:  7
     \\/     M anipulation  |
\*---------------------------------------------------------------------------*/
FoamFile
{
    version     2.0;
    format      ascii;
    class       volVectorField;
    location    "11";
    object      U;
}
// * * * * * * * * * * * * * * * * * * * * * * * * * * * * * * * * * * * * * //

dimensions      [0 1 -1 0 0 0 0];

internalField   nonuniform List<vector> 
13182
(
(0.635355 0.0973149 1.06755e-16)
(-2.30052 -2.26079 0)
(-6.38762 6.70111 3.65029e-16)
(0.279292 0.307689 -8.30039e-16)
(2.22751 -3.96474 4.02119e-17)
(-3.58153 -0.165411 4.14978e-16)
(-3.22788 -0.954231 8.00001e-16)
(-0.262477 -0.383078 -9.28172e-16)
(0.544213 0.298462 -4.80252e-16)
(-26.2577 2.6492 4.43039e-16)
(-22.6848 0.105637 0)
(2.16638 -0.494833 -3.06689e-18)
(1.38594 0.722297 -4.83622e-17)
(-3.37406 0.686736 -9.18574e-16)
(-3.20414 -0.784088 0)
(3.24494 -0.553707 4.10186e-16)
(0.622401 0.499828 -2.31382e-16)
(0.527526 -1.08393 0)
(-3.08526 -0.842348 -7.99592e-16)
(-4.55987 -1.54666 0)
(-3.20192 6.11214 -3.5745e-16)
(-2.81103 -0.509975 0)
(1.01106 0.816704 2.57428e-17)
(-6.37133 2.11159 1.4854e-15)
(-0.896312 -1.68392 8.84465e-17)
(-4.78248 -3.27321 0)
(-0.00382688 -1.60549 0)
(-2.87537 2.65896 0)
(-10.596 0.792719 1.41091e-16)
(0.6345 -1.10821 -1.47659e-15)
(0.504855 -1.26618 0)
(0.57708 0.178777 8.71122e-16)
(2.54738 -0.829717 -1.96587e-16)
(-7.37064 -3.29196 2.05121e-16)
(-5.15352 -8.65373 -5.74086e-16)
(-1.18766 -4.81183 0)
(0.417092 -0.145443 0)
(-7.81211 4.30191 -6.17311e-16)
(-11.2964 2.46285 0)
(0.184375 1.22081 -4.33867e-16)
(-0.274888 -8.2567 -1.27864e-17)
(-19.6762 9.85704 9.7448e-17)
(-10.7023 -0.646018 3.53615e-16)
(-14.5327 -3.41824 -1.07359e-16)
(-4.62591 -1.36193 -5.25212e-17)
(-3.80766 -8.82173 0)
(0.401852 0.855943 9.9882e-16)
(-18.7151 5.34429 0)
(-8.71495 3.2431 2.71584e-16)
(-0.333204 0.0232284 0)
(-1.61372 3.25566 0)
(-3.98586 4.95257 0)
(-2.40254 1.33467 2.18809e-16)
(-0.193816 -0.27697 3.49498e-16)
(1.88298 1.19855 0)
(0.618377 -0.522999 0)
(2.59809 0.500662 0)
(-0.0584252 0.407168 -3.51549e-16)
(3.76582 1.32673 -4.18073e-16)
(0.374981 -1.23999 0)
(0.211616 -0.108524 0)
(-0.102127 -0.191259 9.62896e-16)
(1.67504 0.407447 -3.97395e-16)
(-2.52522 4.78005 6.97277e-16)
(-6.68071 -3.42084 7.93048e-16)
(-4.53863 -4.17185 -1.43911e-15)
(3.86425 2.14729 -3.96521e-16)
(1.25634 -2.45859 1.87959e-16)
(-0.418424 1.88356 -8.29848e-17)
(2.30596 -1.28376 -3.88291e-16)
(-3.04614 3.07552 -2.02871e-17)
(-1.61674 -0.210458 -2.42778e-16)
(-2.46442 -0.952942 5.08693e-16)
(-1.35918 -7.13704 0)
(-5.60757 -4.77721 1.40092e-16)
(0.156807 -0.409555 9.59995e-16)
(-0.389924 -0.714417 0)
(-0.864835 -0.448682 2.60901e-16)
(-0.0119148 0.219193 9.80315e-16)
(-1.75604 1.56643 -1.71844e-15)
(0.416149 -0.569538 -2.38774e-16)
(-3.30397 -4.73011 4.17865e-16)
(-1.59851 -0.723362 2.25029e-16)
(-1.92449 1.36055 -2.04758e-16)
(-5.82293 0.171913 -1.66489e-16)
(-12.6229 -1.25416 0)
(-15.8264 1.06532 0)
(3.63493 4.5644 -4.32597e-16)
(-0.256114 -1.8034 0)
(2.97477 -1.86642 -3.65072e-16)
(0.190858 3.38146 0)
(0.507706 -0.769778 -5.16022e-16)
(-4.09942 -0.836167 2.10973e-16)
(9.63933 7.36391 4.77286e-16)
(0.128833 -2.18352 -8.86365e-16)
(0.159297 0.0100713 0)
(-6.66955 6.3133 3.40336e-16)
(3.6942 -0.00621191 2.23705e-16)
(0.851833 -1.14026 0)
(-0.880621 -1.75863 0)
(-5.03931 -1.66251 -2.4022e-16)
(-9.09752 4.4386 0)
(-4.54925 -0.736695 0)
(-2.45841 -0.512113 -8.01546e-16)
(-1.73754 -1.3578 -4.59468e-16)
(0.285343 -1.33495 -3.64041e-16)
(-8.43186 -1.79422 -1.68969e-16)
(-28.7808 6.24637 -1.73003e-16)
(-0.0241826 -0.544065 -1.20179e-15)
(-7.97996 -3.92667 0)
(-1.58597 -1.1143 1.08306e-15)
(-12.7362 -2.76661 2.19815e-16)
(-22.9386 -1.73303 -5.30797e-16)
(-3.16421 -0.239011 -4.57263e-18)
(-2.3732 1.61924 3.31869e-16)
(-8.01994 0.271944 -5.7945e-16)
(-0.685506 -0.683788 6.06129e-16)
(-4.60438 12.0909 1.21632e-16)
(-2.07883 4.0613 5.88924e-16)
(-0.423379 3.64024 2.7883e-18)
(1.29204 1.64401 0)
(-13.6373 -0.877769 -4.25309e-16)
(-0.269285 -0.78674 0)
(-2.76322 -0.0227803 -8.17603e-16)
(-5.85405 0.161992 -3.42015e-16)
(-6.38615 1.28765 0)
(-0.645965 0.728897 -3.95803e-16)
(0.993835 0.122558 2.21398e-16)
(-2.2199 0.00625322 -9.08879e-16)
(4.84234 5.64215 0)
(-8.10042 0.390737 1.16204e-16)
(-2.96497 -0.254624 0)
(-0.903315 0.169816 0)
(-7.84044 1.59086 -2.50004e-16)
(-3.75716 0.56412 -1.2337e-15)
(0.680163 0.0957699 8.29988e-16)
(-0.445026 0.234332 6.43135e-17)
(1.84874 -0.525892 -2.01906e-16)
(-1.63631 -0.0129488 0)
(-2.11238 -1.62688 1.51938e-15)
(-4.55097 -6.57194 7.13076e-16)
(-25.2483 -11.4565 0)
(-14.3895 8.55889 1.75568e-16)
(-9.51113 1.60794 0)
(-11.8111 3.79405 4.02345e-16)
(-0.812016 -0.0846126 -1.28169e-18)
(-4.24904 -1.91073 0)
(2.25059 3.17564 0)
(0.723613 -0.802105 -4.83236e-16)
(-7.2122 6.38363 0)
(-4.02281 7.02971 -9.79579e-17)
(-4.7765 -4.04192 3.26015e-16)
(-0.672975 -3.15994 0)
(-5.71679 -1.78653 2.81883e-16)
(5.18185 1.12111 6.1012e-16)
(2.25761 1.14622 6.94052e-16)
(-10.8533 1.41939 0)
(4.46242 -11.4665 1.03364e-19)
(-6.66951 -5.2435 -9.39737e-17)
(-5.30588 -0.832804 0)
(-5.18766 -0.186587 -3.69244e-16)
(-8.06251 3.85537 -6.07508e-16)
(0.835912 3.9921 2.66449e-16)
(1.5711 -0.689724 -9.29903e-16)
(-1.59676 -0.0879666 -1.72495e-18)
(1.01343 -0.516287 1.97814e-18)
(-0.40383 -0.85378 5.16283e-16)
(-4.09739 -5.50944 -7.59023e-16)
(-4.4221 -2.43678 1.71744e-16)
(-2.74916 3.38124 0)
(-13.5726 1.0759 0)
(-6.45691 2.23035 -4.58483e-16)
(-2.43485 1.72749 0)
(-4.55425 -4.96483 -4.32326e-17)
(6.73154 -3.64184 2.89806e-16)
(2.43403 0.636516 8.02307e-16)
(-9.9194 8.24353 0)
(-9.04235 2.65284 -2.93271e-16)
(-1.79828 0.253021 0)
(-1.52694 -1.02024 0)
(0.228167 -1.7416 -3.57145e-16)
(-18.2426 4.79726 -3.02932e-16)
(0.463608 -0.459615 0)
(-1.45994 -0.116117 1.2467e-15)
(6.77734 -0.187859 -1.9706e-16)
(-9.31387 -2.87391 -3.05653e-16)
(-11.5728 1.3355 5.91368e-16)
(0.0908757 -0.345026 -8.85457e-16)
(5.76796 -0.983715 5.15593e-16)
(-2.25485 0.18964 3.76649e-16)
(7.18913 -1.40424 -2.47324e-16)
(0.27354 -0.637375 -1.38631e-20)
(7.35251 -0.06841 -2.42512e-16)
(2.01896 -0.0809581 0)
(0.0699758 -0.713581 1.00594e-15)
(5.88334 3.2681 2.98557e-16)
(-10.1589 3.2361 5.65016e-16)
(2.69416 1.41218 1.9586e-16)
(-2.55943 1.09833 6.93212e-16)
(3.00648 -1.86427 1.90429e-16)
(0.400719 1.55535 -8.51533e-16)
(-1.41064 0.713771 1.38684e-15)
(1.92025 3.1816 4.89828e-17)
(-0.0592294 -0.504062 0)
(-8.65164 -2.10636 -3.79675e-18)
(8.33061 -4.97641 1.45661e-16)
(-3.98651 -5.42248 -1.82818e-16)
(-21.6537 3.47911 0)
(0.275162 -0.217587 5.97494e-16)
(-3.83503 -4.08774 -2.27232e-16)
(-5.55369 2.39035 0)
(-25.1224 -1.26124 0)
(0.661474 0.762894 -8.49949e-16)
(2.66165 -0.233214 1.03743e-15)
(-6.27395 -0.671022 0)
(-0.910712 0.767294 0)
(-2.26476 1.78482 6.94191e-16)
(0.286886 -0.269827 -1.02953e-15)
(0.363906 1.4682 -7.19696e-16)
(2.25415 -3.30442 -3.28906e-17)
(-2.9137 -3.69449 0)
(-6.7457 -1.69111 0)
(1.82867 -3.89146 1.02454e-16)
(-2.59876 1.29708 2.26008e-16)
(-5.7293 3.07794 1.77037e-16)
(0.298668 -0.016439 -1.0452e-15)
(-0.241499 0.0276914 4.38433e-16)
(0.550559 -1.45672 0)
(1.00015 -0.374369 4.78271e-16)
(-1.10249 -0.183516 -1.69936e-15)
(0.465959 -0.321747 4.6327e-16)
(-3.31031 -2.65943 -4.55997e-16)
(-3.78944 -1.60222 4.54823e-16)
(-3.12655 0.871971 0)
(-0.722923 -1.41108 -1.11824e-16)
(0.405633 0.0613227 0)
(-10.4437 5.25966 -2.54849e-18)
(-2.81391 -0.198659 8.69275e-16)
(-3.55525 -0.39701 0)
(2.14218 -2.85437 -3.46543e-18)
(-9.2964 -2.51093 2.30857e-16)
(-10.0042 2.90414 -1.21168e-16)
(-0.398855 0.649495 -4.55947e-16)
(0.708959 -0.165403 3.83368e-16)
(0.527487 0.798556 -1.24878e-15)
(-1.12405 -2.14743 4.26045e-16)
(0.585472 3.41644 7.31834e-16)
(-5.0428 0.911364 -1.41993e-15)
(0.628237 -0.020498 -5.07098e-17)
(-3.00412 -0.5257 3.58821e-16)
(1.48335 0.602637 2.02236e-16)
(-0.229518 2.63431 -3.82418e-16)
(-0.491711 1.72244 1.01292e-15)
(-0.896231 0.323334 -3.11387e-16)
(-4.50129 -11.6794 -1.45387e-16)
(0.0777123 -0.0648717 -4.24464e-16)
(-10.3582 -1.06822 -1.38003e-16)
(-21.6047 -2.22722 -9.70615e-17)
(-15.1533 1.12211 -2.06596e-17)
(-6.96078 -0.597209 -1.32799e-16)
(-6.02245 -3.87305 0)
(0.601395 0.275807 1.29232e-15)
(-0.4917 0.222746 4.59148e-16)
(0.676977 -0.390276 0)
(2.92697 -3.21376 -4.34383e-16)
(-5.09469 2.31548 3.06213e-16)
(5.42715 7.60337 2.06769e-16)
(-2.00947 0.209868 0)
(-0.186955 -0.99802 -7.48281e-16)
(0.3858 -0.747451 -5.81776e-17)
(-0.351604 -0.274149 -8.98254e-16)
(-1.11751 0.214917 -9.67391e-16)
(-2.79987 1.06813 8.86398e-16)
(-1.71575 1.08408 0)
(-0.0536354 -0.84598 0)
(-7.13763 6.72382 -5.53591e-16)
(-1.51551 -0.25338 9.13773e-16)
(-0.922691 -0.356685 -1.29235e-15)
(-1.94387 0.839978 0)
(0.551784 -0.962601 0)
(0.353744 -0.359891 -9.80233e-16)
(5.47285 3.90465 2.89993e-16)
(-0.715156 1.49628 0)
(-1.26992 1.22702 5.71414e-16)
(1.23157 1.05081 -1.05431e-16)
(-3.56207 -5.83932 7.68819e-17)
(-5.27687 4.39389 5.43623e-16)
(0.275297 -0.717348 -9.28364e-16)
(-8.77437 -7.71062 1.92991e-16)
(0.992051 -0.920793 -5.2282e-16)
(-0.187487 1.28042 2.51321e-16)
(-17.6938 -1.52981 -2.09576e-16)
(0.71678 1.04037 1.53307e-16)
(-5.5636 -3.36803 -2.00097e-16)
(0.411174 -1.59381 2.302e-16)
(0.315026 0.0149867 3.54856e-16)
(-0.169184 -0.224972 0)
(-0.063892 -0.340278 0)
(-0.116521 0.45338 -7.43722e-16)
(-0.0288313 0.264535 -2.50861e-16)
(8.28419 -1.28032 3.42571e-16)
(-1.03743 4.35536 1.04222e-15)
(0.00202197 0.997847 4.36659e-16)
(0.788182 1.04949 2.30223e-16)
(-12.3897 10.0978 0)
(15.4014 1.06288 -2.91968e-16)
(-2.27105 -0.179927 7.69198e-16)
(-3.88104 -1.28279 4.07354e-16)
(0.361806 0.72895 9.8717e-16)
(8.06889 1.99211 3.24779e-19)
(0.916072 0.880713 0)
(1.13313 -0.0716336 -4.43919e-16)
(1.61397 0.79009 -2.67094e-16)
(1.1511 -1.49288 9.42637e-16)
(0.488367 -0.624471 0)
(0.128532 0.367103 -1.06196e-15)
(0.399713 -0.183731 9.03518e-16)
(-0.520309 -1.39442 0)
(0.606997 -0.505061 1.74453e-15)
(-4.69598 -3.17646 2.62507e-16)
(3.45772 -3.81286 -4.2883e-16)
(1.93805 -1.20811 1.59349e-16)
(-1.24614 -1.42915 9.00091e-16)
(-0.662136 0.249345 -4.44384e-16)
(-1.74852 -0.714591 7.19717e-16)
(-0.544777 -0.0536107 -9.1935e-16)
(-1.39371 -4.22333 2.9325e-18)
(0.642877 -1.13399 0)
(1.06892 7.25195 0)
(-1.20765 -1.47878 -2.89858e-16)
(-4.9801 -2.60202 0)
(-4.20128 -2.65658 0)
(-4.26378 2.06768 0)
(-11.0968 0.544755 -5.02642e-16)
(-7.07921 2.03443 0)
(-0.288858 1.60219 5.02573e-17)
(-1.86176 -3.12613 -7.65951e-16)
(2.5604 -0.413867 -4.11539e-16)
(1.15069 -0.53471 0)
(-16.8008 2.51336 2.3388e-16)
(-5.98123 7.45477 6.46581e-17)
(0.730449 0.778857 0)
(0.982912 0.259261 -1.25797e-16)
(-8.78964 -5.4639 0)
(-16.3249 5.11897 4.40501e-16)
(-0.298216 -0.561407 0)
(-1.00383 0.328359 7.83833e-16)
(-2.32177 0.666061 0)
(0.0494546 1.5732 -8.55611e-16)
(-8.31773 -0.786545 -8.21384e-16)
(-6.35848 -1.65721 7.73544e-16)
(-0.277918 -0.718563 -1.38213e-15)
(1.74513 4.66952 1.53189e-16)
(-1.77612 -0.0817168 8.54211e-16)
(-2.99622 -1.01884 -1.22599e-15)
(0.0426745 -0.428682 -4.07789e-16)
(0.144253 0.933077 -6.81515e-16)
(-0.585855 1.58471 -7.10186e-16)
(0.419092 0.0564924 -2.35135e-16)
(2.15947 -0.193164 8.93611e-16)
(0.907473 1.92438 1.19135e-16)
(0.122811 -0.747011 0)
(-3.45014 2.61953 -1.51748e-16)
(-3.05201 -0.344397 2.52527e-16)
(1.13705 -8.81793 -3.81976e-16)
(-3.71151 0.157517 0)
(0.741419 -1.04131 6.16376e-16)
(-2.16129 -1.11532 9.63616e-16)
(0.000895939 -0.286911 7.04254e-20)
(-1.09143 -2.29092 0)
(0.493767 -0.148056 -4.6726e-16)
(-0.198565 -1.52412 4.60832e-16)
(-3.60454 2.96583 -1.22529e-16)
(-4.63183 -1.87959 -1.59857e-16)
(1.14642 0.84496 -1.07781e-15)
(0.0106798 -0.488832 3.54215e-16)
(2.44793 -0.89317 -7.0884e-16)
(-5.04378 -0.273604 -2.06551e-16)
(-17.8695 -6.38929 -1.79991e-17)
(-6.62816 -5.26984 1.04937e-16)
(-1.59343 5.03787 -8.26991e-16)
(-5.20863 -5.0094 -4.55627e-16)
(0.105187 -0.514319 -9.07529e-16)
(-2.88824 -0.940694 -4.33942e-16)
(1.04792 -2.09496 -2.72942e-16)
(-3.25384 4.21488 -1.07801e-17)
(-6.47848 0.0152416 -5.61831e-16)
(-0.798413 0.234512 -2.33738e-16)
(0.853925 -5.24643 2.0896e-17)
(4.98084 -1.48242 6.02514e-18)
(0.407127 -2.71997 0)
(1.00379 0.0132155 -6.23499e-17)
(0.597518 0.260883 9.51181e-16)
(1.10414 -3.42972 -3.85743e-16)
(-2.50661 0.0417105 -3.3901e-16)
(1.79646 0.485618 0)
(0.300519 -0.220622 0)
(-4.66009 0.473691 2.30049e-16)
(3.03434 6.95467 -7.86144e-16)
(-1.94912 -0.988258 2.51435e-16)
(-9.6859 5.75757 0)
(-5.07412 4.89847 2.245e-16)
(-1.43451 -0.00542164 -1.97708e-16)
(0.262546 -0.273872 1.94203e-16)
(-0.24435 -1.25517 6.45477e-16)
(-3.70878 3.06409 -5.87724e-16)
(-3.23452 1.49136 4.11331e-16)
(-0.0318806 -0.0504271 -9.4459e-16)
(0.104457 0.160918 0)
(0.93882 1.99013 6.61943e-16)
(-0.441617 -5.00131 8.13957e-16)
(0.601296 -3.73584 0)
(-2.59946 -4.61082 -5.53617e-17)
(-2.64628 -2.11507 1.7794e-16)
(0.904271 0.0428951 0)
(-2.87029 1.25738 -1.62303e-16)
(0.511301 -0.0168173 0)
(-23.647 -8.46508 1.63775e-17)
(-2.06215 1.54051 0)
(-1.86017 2.68847 0)
(-5.10979 -2.0226 0)
(-2.92192 -1.83233 1.80783e-15)
(0.100459 -1.08492 -1.17074e-16)
(0.143523 -1.06864 0)
(1.06532 -0.311338 0)
(-17.0223 -5.67947 -4.22473e-16)
(-1.30515 1.33058 -4.56945e-16)
(-2.48914 -0.0665651 -3.53452e-16)
(-3.11586 -0.939721 0)
(-0.0532298 -1.59437 4.33414e-16)
(-8.47247 -6.43813 5.37388e-17)
(-4.27655 -2.82942 -7.68212e-16)
(1.26115 -2.29233 -1.00931e-16)
(-0.864464 0.114946 -9.11614e-16)
(-3.09624 -0.879763 -4.94055e-16)
(-5.49847 6.39495 0)
(0.334488 -0.18005 -4.10219e-16)
(-1.15133 -0.229558 -1.55149e-16)
(0.87015 5.82035 -4.06347e-16)
(-1.67761 -3.29925 0)
(-0.273724 1.72971 2.01435e-16)
(-8.50418 -2.68423 6.61102e-16)
(-2.4078 1.60148 0)
(1.43839 -1.20455 4.37699e-16)
(5.25675 3.02498 -1.08792e-15)
(0.34066 0.0783315 0)
(-18.5212 6.90816 0)
(0.361772 0.0721835 0)
(2.56881 -3.61435 0)
(0.493701 -0.488637 -4.74503e-16)
(1.08037 -0.0930471 8.66941e-16)
(2.44898 -3.12412 -8.62592e-16)
(5.00008 2.86642 -2.70427e-16)
(-0.103954 -0.123509 -2.48544e-16)
(-0.346486 7.92599 -1.23191e-16)
(-4.94207 2.15339 -7.84795e-16)
(0.926008 -0.262082 0)
(0.175771 -0.677926 0)
(0.929922 -0.726311 0)
(-0.866656 0.736585 -1.20118e-15)
(0.633253 0.0254272 4.46701e-16)
(0.451401 0.0355233 -1.07116e-16)
(10.5924 8.24951 -8.41357e-18)
(-0.742539 -0.559557 -7.45078e-16)
(0.62262 0.718422 0)
(0.670388 0.296377 -1.04146e-15)
(-4.22692 -1.84588 3.32582e-16)
(3.81912 2.79014 1.62963e-16)
(0.567136 -0.176947 -8.40879e-19)
(-1.87029 -0.00381958 0)
(-0.6561 1.04704 7.29038e-16)
(-7.11901 15.9615 0)
(0.455712 0.208709 9.41413e-16)
(-1.4679 0.291448 0)
(-6.49539 -0.414234 1.7291e-16)
(-10.764 -6.09729 -3.27128e-16)
(0.723347 -0.875023 2.51286e-16)
(-3.74931 7.42272 6.18498e-17)
(0.770353 -0.983093 -2.48222e-16)
(-0.133906 -1.13978 9.31863e-16)
(0.179171 -0.0404324 0)
(0.0695446 -0.670547 8.71284e-16)
(-3.04356 1.94969 0)
(-0.151761 -0.505622 0)
(2.59637 -2.57184 7.83783e-17)
(-5.42665 -11.7484 2.25765e-16)
(0.375151 1.37546 1.12254e-15)
(-7.42383 1.63982 -7.89901e-16)
(-5.36614 1.05202 0)
(-28.7948 14.76 -8.70518e-17)
(-0.430144 0.482024 0)
(-2.49114 1.90126 -3.69747e-16)
(0.39346 -0.0473626 4.58908e-16)
(8.6885 -4.94751 -3.58328e-16)
(0.466315 -0.497658 0)
(10.599 -4.81821 -2.96685e-16)
(-7.84941 2.89909 6.00365e-16)
(-9.56434 3.48628 1.89607e-17)
(0.118714 -1.68326 0)
(1.76474 1.24854 7.21599e-16)
(-0.110783 -0.267794 0)
(1.04859 -0.195286 -4.86865e-16)
(-0.445678 -0.29911 -2.41231e-16)
(-13.4728 0.279052 0)
(-9.96971 -3.52696 2.45603e-16)
(-0.976002 -1.24925 1.07426e-16)
(0.695634 0.764714 0)
(-0.399924 -1.2666 0)
(-0.00852425 2.67824 9.19261e-16)
(-11.8817 -3.21754 -3.18162e-16)
(-9.67064 1.17192 -3.12152e-16)
(7.51951 2.06976 0)
(-3.35399 -0.245357 0)
(-6.48246 5.96384 -8.06221e-16)
(-5.42151 -1.5467 -7.48913e-16)
(-3.60122 -0.851343 3.61084e-18)
(0.100695 1.23603 -5.48182e-16)
(0.744386 0.0624181 0)
(2.41778 -2.09338 4.44167e-16)
(3.19326 14.3617 2.59268e-16)
(-0.208973 -0.560811 8.75438e-16)
(-0.9823 -0.124364 0)
(-1.56949 -1.75653 2.24824e-16)
(-0.225628 -7.10502 -1.39233e-16)
(-3.00354 3.09497 3.06554e-16)
(-3.66073 -0.895694 0)
(0.343852 -0.785741 -4.08369e-16)
(1.6243 2.32019 0)
(0.574644 -0.303027 0)
(-5.60535 -2.59584 3.69755e-16)
(-0.00964592 -0.893932 -3.59785e-16)
(0.827102 1.16192 7.11344e-16)
(-5.58884 0.867485 -4.82622e-16)
(0.982969 1.43918 -4.21653e-16)
(-15.7513 2.52879 4.12636e-17)
(-4.06768 -0.397894 4.2e-16)
(-0.963153 -1.73441 -4.39462e-16)
(3.59385 8.00724 4.69678e-16)
(-4.8414 -1.46178 0)
(-2.24501 -1.72599 0)
(-1.73663 -0.0276839 0)
(-1.92697 0.266288 4.55518e-16)
(0.229989 -0.295353 5.12889e-16)
(-13.2543 1.5352 1.57084e-16)
(1.34154 0.124378 9.31309e-16)
(-0.77593 0.876533 1.71097e-16)
(-8.19216 -2.84974 -3.55383e-16)
(-0.0186917 -0.0178442 8.54402e-16)
(-7.55739 -5.22519 -5.27678e-16)
(0.0238883 -1.02148 8.88794e-16)
(0.64323 -0.797658 2.31548e-16)
(-1.13525 -1.95065 -4.52814e-16)
(-2.22204 -1.23165 0)
(-1.04244 -0.901747 7.0057e-16)
(-2.94965 -1.87354 2.51643e-16)
(-0.440016 0.161315 1.53979e-17)
(1.25283 -0.0544628 -2.37882e-16)
(1.06648 1.27065 -2.17084e-16)
(-2.63161 0.470764 1.15987e-15)
(-0.645233 -0.785355 -1.17232e-15)
(-10.979 -1.96494 5.44646e-16)
(0.383257 -1.2777 0)
(-0.956904 -1.45221 1.11661e-15)
(-2.12333 -1.69258 4.01131e-16)
(0.330973 0.151525 -8.79016e-16)
(-0.954721 1.37808 -8.80557e-16)
(-1.50917 -1.97258 3.73425e-16)
(-8.52738 7.36238 -1.27215e-16)
(-10.0928 8.39245 -4.48107e-16)
(-2.05019 0.00499487 0)
(-3.71442 1.83142 9.94888e-17)
(-9.11063 -7.57678 -4.59901e-16)
(-7.5325 -3.03454 5.21295e-16)
(-0.821147 -1.81561 4.06936e-16)
(0.311391 0.0114566 -8.7087e-16)
(1.50903 -0.081412 9.56183e-16)
(0.446425 1.2806 0)
(-1.90398 0.641528 -4.33931e-16)
(1.94623 0.609641 5.26795e-16)
(-1.72229 5.33673 -3.0944e-16)
(-2.95101 1.21737 -8.06174e-16)
(-8.77918 8.68307 0)
(0.420526 -0.179691 -1.32413e-15)
(-0.586449 1.772 2.60031e-18)
(-3.08466 2.78088 4.51618e-16)
(-6.30808 -2.87666 2.20145e-16)
(0.823928 0.30162 0)
(-0.464986 -0.777137 -8.78672e-16)
(-0.701245 -2.20298 9.50164e-16)
(-7.26421 -3.18277 6.07021e-16)
(-2.40378 -3.39118 5.99579e-16)
(-3.6021 -4.1678 0)
(-0.627684 0.810028 -7.97079e-16)
(3.62301 -2.24443 7.88744e-16)
(-0.678037 -1.41559 1.2165e-15)
(-3.73972 4.7242 4.84088e-16)
(-13.5366 0.450971 3.38267e-16)
(0.184577 -0.204391 0)
(0.617205 -0.333742 -6.36322e-16)
(0.793287 0.489565 -1.10148e-15)
(-1.91069 0.0952953 -9.80245e-16)
(0.322102 -0.421888 0)
(0.241933 -1.01988 0)
(1.30135 0.0343334 6.99998e-16)
(-9.9924 8.15839 -1.16891e-16)
(-7.77401 1.0037 -3.08545e-18)
(-13.3585 3.17848 1.23567e-16)
(-5.49008 1.6245 9.90878e-16)
(0.354698 -0.583608 4.7635e-16)
(0.132028 -0.258727 0)
(0.27194 -0.48655 1.00821e-15)
(-3.7998 -0.735065 2.40418e-16)
(1.15285 -1.45748 -4.19052e-16)
(-11.6781 -2.1259 3.89076e-16)
(-8.97081 -4.00362 -3.05288e-16)
(4.10756 9.08193 -5.55776e-17)
(-6.42678 7.68654 5.54482e-16)
(4.0692 -1.11192 -3.84473e-16)
(-1.90361 -0.976867 -1.72973e-16)
(0.605486 1.76805 -2.11635e-16)
(-0.360147 0.387892 9.35857e-16)
(-14.1608 7.99675 0)
(-1.13366 1.15858 0)
(1.1095 -0.674323 4.87162e-16)
(-12.0901 15.0592 -3.92754e-16)
(-6.44467 10.5231 6.01269e-16)
(0.413057 -0.306248 9.08606e-16)
(-2.41468 -0.931788 9.79912e-16)
(9.02466 -4.84952 0)
(0.0171212 1.02031 5.40995e-17)
(0.531879 -0.494709 -2.47914e-16)
(0.540736 -0.140383 0)
(-1.37055 1.54206 0)
(0.541264 3.62227 -9.44143e-17)
(-2.71492 0.79568 0)
(1.61978 7.27406 -4.95746e-16)
(-1.46967 0.0552381 2.65118e-16)
(-1.17312 -0.929707 1.09221e-16)
(1.04292 -0.357233 -3.77488e-16)
(-0.839405 -0.26401 2.60691e-18)
(1.70729 0.0833002 -4.73503e-16)
(-1.45696 -11.5191 0)
(-0.875937 -2.75983 8.13212e-16)
(1.58487 1.31619 -8.63882e-16)
(0.449768 -0.120125 7.23392e-19)
(-2.23111 -1.49791 8.21895e-17)
(-6.89984 -0.105403 0)
(-0.917914 -0.542662 2.49458e-16)
(-1.85413 5.45248 3.13396e-16)
(-1.50777 -3.69252 -8.91288e-17)
(-0.408249 -0.884271 4.98559e-16)
(0.972522 -0.799599 -1.41116e-15)
(-4.38189 1.93002 -2.84404e-16)
(0.219104 -0.334972 2.30091e-16)
(0.260253 -0.0921088 0)
(-2.38355 -0.953989 3.80453e-16)
(0.641651 -0.529659 -4.97167e-16)
(-0.401562 -0.376634 -3.24777e-16)
(-27.0589 3.13258 2.1781e-17)
(12.2335 -2.47623 1.43176e-16)
(0.125367 -1.18251 1.38268e-15)
(2.60859 -0.543354 0)
(-8.57943 5.32201 2.05113e-16)
(-1.77699 0.480858 -4.10249e-16)
(0.790234 -0.561426 -8.55663e-16)
(-0.363912 1.69772 -8.17286e-16)
(1.40833 -1.2188 -8.83024e-16)
(0.825553 -1.70993 4.40966e-16)
(0.541575 0.222792 0)
(-1.73682 -0.277192 3.7997e-16)
(0.667119 -0.106123 0)
(-1.31846 2.12813 0)
(1.29982 0.0855056 0)
(-0.448304 0.0854903 7.44104e-16)
(0.455854 0.979154 -5.2591e-17)
(-8.24903 4.01121 -1.48163e-16)
(0.195041 -0.159172 1.95748e-16)
(-0.0913892 0.779459 2.4085e-16)
(-4.69573 -9.70698 -3.92721e-16)
(-0.872039 -0.00737545 -9.30865e-16)
(-3.44092 1.86375 -5.49764e-16)
(-0.0311338 0.246846 -4.96821e-16)
(0.889959 -0.0865189 0)
(1.46918 -3.14743 -5.01511e-16)
(-0.332932 -0.59 -1.0219e-15)
(3.45794 -0.100377 0)
(-8.58098 -0.495648 0)
(-3.35388 1.2381 0)
(0.449658 4.83362 -1.14907e-16)
(0.509641 0.295556 9.52556e-16)
(-4.01856 0.89469 -9.00376e-16)
(-0.580182 0.413504 1.25697e-15)
(-2.3802 0.487606 0)
(-6.53459 1.06518 5.39652e-16)
(0.256321 0.0332285 9.77608e-16)
(0.176406 -0.219494 -8.06527e-16)
(-1.85079 -2.54598 0)
(-5.30475 0.34758 0)
(2.52476 -0.188579 -4.24543e-16)
(-2.89873 5.83328 -2.47824e-16)
(0.0956781 0.0742521 1.15408e-16)
(0.239664 -0.278577 0)
(-1.39448 0.651122 -1.45289e-15)
(-2.22176 -1.2238 -9.67292e-16)
(2.5075 6.54965 1.48368e-16)
(0.149368 0.196448 0)
(-1.31356 -1.01717 0)
(-1.30235 -0.599886 4.39823e-16)
(-2.72423 -1.04724 1.58283e-16)
(-4.58872 1.9709 0)
(0.0205042 -0.866982 4.93074e-16)
(1.03507 0.627441 -2.16872e-16)
(-2.76063 -0.567395 0)
(-0.965218 -0.666399 -4.73169e-16)
(-15.2131 -4.53884 4.74214e-16)
(-11.1963 4.16717 -5.32811e-16)
(0.315755 0.485397 0)
(0.992386 0.901336 -1.0285e-15)
(0.836902 0.257781 0)
(-2.96876 -5.97904 2.9751e-17)
(-11.7489 -2.17248 0)
(-0.0228912 6.28297 3.65623e-17)
(0.740546 -0.227912 9.00851e-16)
(1.44569 2.10765 -7.87187e-16)
(0.5571 -0.604125 0)
(0.535647 -0.579411 1.78554e-16)
(-6.83317 13.0194 0)
(-7.99888 2.56141 3.63955e-16)
(-1.2564 -2.68641 -4.73057e-16)
(0.554296 -0.610459 1.0036e-15)
(-0.454022 -1.8259 8.50861e-16)
(-4.89376 -2.474 4.20065e-16)
(-2.39795 1.68635 -3.9341e-16)
(-1.20037 1.15172 6.9184e-16)
(-4.7632 -3.04623 2.03052e-16)
(-2.08855 0.855961 6.0505e-16)
(-1.13288 -0.255915 -9.70876e-16)
(-0.111237 0.0170668 0)
(-5.82357 -1.22349 8.71928e-16)
(-6.41434 -2.13624 1.09541e-15)
(-7.86992 -0.194008 -3.68928e-16)
(-0.351991 0.322163 4.72449e-16)
(0.801424 -0.584469 3.67438e-16)
(-1.87618 -3.40667 0)
(0.735689 -0.148057 0)
(3.20798 -2.97109 6.55975e-16)
(-0.0773347 -2.90458 -3.93364e-16)
(4.11578 -1.94455 4.09495e-16)
(-0.265782 0.649597 -2.0715e-16)
(-9.45499 0.0919542 -8.42436e-16)
(0.921367 0.162656 8.31552e-16)
(-18.118 -3.64578 0)
(-1.69254 -0.720511 0)
(0.537664 -0.438323 -2.66957e-17)
(12.3307 -1.72226 -7.07026e-18)
(0.289014 -0.1102 -3.14129e-17)
(1.86115 4.33163 0)
(1.64862 0.630394 -8.00234e-19)
(1.62611 0.0384849 0)
(-8.68043 -0.198798 -1.82883e-16)
(-0.443386 -0.393006 1.00445e-15)
(0.996987 -0.0167958 -3.64198e-16)
(-19.0059 -3.52405 4.90254e-16)
(-4.14039 -0.13701 0)
(-0.436768 -0.113111 -1.18515e-16)
(0.6705 0.521158 -2.50946e-16)
(6.07061 -2.44727 7.47837e-16)
(-2.54714 0.0688622 -2.14614e-16)
(0.097194 0.0715805 2.7116e-16)
(-0.237786 -0.314409 8.02918e-16)
(-20.693 -5.45148 -7.39077e-17)
(-8.20207 -3.04718 1.75941e-16)
(-0.321018 -0.325068 -2.20873e-16)
(-0.560149 0.338519 1.98352e-16)
(0.697612 0.0855716 2.38566e-16)
(0.518545 0.149075 8.64305e-16)
(-6.35952 -3.359 -4.7812e-16)
(-0.646484 -0.407774 -7.26584e-16)
(0.0416694 -0.0294903 1.03119e-15)
(0.760482 0.21571 -1.31745e-15)
(0.284439 0.516532 1.86796e-16)
(-12.9493 4.15999 3.11477e-16)
(0.875555 -0.638082 8.79791e-16)
(-15.5359 -3.09996 8.26787e-16)
(-6.11428 -4.40187 4.3582e-18)
(-19.205 7.49863 0)
(0.438569 0.0422801 9.60564e-16)
(-1.2721 2.27978 -4.81429e-16)
(-3.05509 0.566062 2.03642e-16)
(0.245365 -1.58138 -2.98984e-16)
(-4.16372 3.18138 8.24637e-16)
(-1.07648 4.55891 2.71733e-16)
(-2.22767 -0.646299 -1.01231e-15)
(2.78156 -1.4905 0)
(3.06715 -0.150728 2.94863e-16)
(-2.49874 5.79128 -2.13916e-16)
(0.210246 0.215947 0)
(1.06597 1.45994 -1.49958e-15)
(-0.551542 -0.0163649 4.33246e-16)
(-7.4025 1.19952 -2.49096e-16)
(-10.3407 4.9333 3.06215e-16)
(0.14865 -0.120868 3.71401e-16)
(3.94342 -5.59998 0)
(-0.786845 -0.653064 9.56118e-16)
(-3.73719 3.67629 3.93507e-17)
(-0.914104 -0.819334 -1.00601e-15)
(-1.22196 -1.11718 -7.78998e-16)
(-0.209507 -0.21422 -1.22631e-16)
(-0.298248 0.578836 4.39829e-16)
(-2.18377 -3.45492 1.98132e-16)
(-1.89774 -1.00288 0)
(0.743799 -2.23373 0)
(12.1062 1.33504 -5.71784e-18)
(-5.052 -4.68747 -5.00172e-16)
(-7.10591 7.10245 2.9385e-16)
(-18.5039 -4.88143 6.19407e-16)
(-10.1469 -3.17616 0)
(0.603622 2.48855 1.407e-17)
(-0.0254822 0.894678 -8.08469e-16)
(-6.17912 0.416486 3.78353e-16)
(-8.01878 -2.04978 0)
(0.858799 -0.340241 0)
(-3.11135 -1.96135 -6.86268e-16)
(0.315417 0.155287 -1.99597e-16)
(4.91462 0.10402 2.02248e-16)
(0.478908 0.236681 -2.37355e-16)
(-11.2908 0.728181 -2.43099e-16)
(11.7128 6.34895 0)
(0.40686 1.53058 0)
(1.12499 -2.80845 6.05227e-16)
(0.496789 0.21511 1.86727e-15)
(1.46338 -0.552995 -8.08037e-16)
(-1.01791 0.873159 -4.75815e-16)
(1.00045 0.784413 -1.08388e-16)
(5.47433 -0.802013 4.47757e-16)
(0.244674 -5.15351 -8.23407e-16)
(-22.3848 6.33651 -1.56452e-16)
(-21.1812 3.47137 1.59668e-16)
(-8.24549 0.00237166 5.4415e-16)
(-0.0701235 3.92907 0)
(-0.345357 -0.219142 1.99547e-15)
(-8.101 4.69705 2.6661e-16)
(2.20049 -1.34707 -7.94504e-16)
(0.561867 0.337031 0)
(-1.21818 0.487106 2.1282e-16)
(-3.21616 0.398582 0)
(-4.14584 3.964 4.49529e-16)
(-6.11309 -5.45472 2.48461e-16)
(-3.09917 -0.415317 4.3998e-16)
(-3.21084 -0.233329 0)
(-0.697212 0.146192 0)
(-0.27305 1.37483 0)
(6.12164 1.91798 5.38927e-16)
(0.164044 -1.03261 9.33912e-16)
(0.947045 -1.38984 -5.69775e-16)
(-6.94639 6.57734 -6.16285e-16)
(-21.8097 2.81007 0)
(0.569948 -0.671511 2.61811e-16)
(0.538094 -0.665656 -4.78567e-16)
(6.83938 0.989541 0)
(-1.13709 -0.910099 0)
(-6.04397 -0.119439 1.60723e-16)
(0.6733 -0.656455 4.85874e-16)
(-1.76132 -9.78495 0)
(-5.489 5.95749 -3.70061e-16)
(-0.794716 -0.0743206 -4.52224e-16)
(1.07122 5.86498 2.36636e-17)
(-6.96441 1.33711 -4.34589e-16)
(-2.63555 -0.105819 -4.27483e-16)
(0.871284 -0.405807 2.71526e-16)
(-0.123415 -0.597933 -5.68907e-17)
(-0.0540241 -0.313432 -4.94151e-16)
(-2.57611 -2.38259 -3.79779e-16)
(0.916553 -0.996996 0)
(2.28514 -2.95159 -9.28267e-17)
(0.163262 -0.858463 0)
(0.462729 0.00680296 5.45321e-16)
(7.70882 -4.4345 0)
(-0.397397 -0.448472 -4.46349e-16)
(-5.49544 -0.904947 -1.65873e-16)
(-0.602966 0.69793 1.03077e-15)
(-0.723471 0.411513 9.37153e-16)
(-11.5187 1.72398 1.41801e-16)
(3.46217 0.684237 -3.27483e-16)
(-0.0137068 -2.80371 0)
(-0.229001 -0.51872 -2.54729e-16)
(0.509705 -0.12731 1.51206e-17)
(0.613358 0.004717 0)
(0.452801 -0.358788 1.22747e-15)
(-1.42401 -1.60106 -1.30812e-15)
(1.08759 2.94791 -1.4007e-17)
(2.81112 -10.2971 -5.20145e-17)
(0.0316463 -0.101845 1.15497e-16)
(-0.0725939 -2.00245 0)
(-11.9872 0.239495 0)
(-0.127981 0.264101 9.38849e-16)
(1.81953 1.37143 6.31198e-16)
(-2.63951 0.0158658 0)
(-15.3686 12.2698 0)
(0.488172 -0.629301 -4.58701e-16)
(-2.23051 -0.560172 0)
(0.288276 -1.63924 0)
(8.75526 6.81877 -4.11497e-16)
(0.450443 -0.985424 8.40099e-16)
(0.257975 0.0576795 0)
(2.48617 2.26204 0)
(-9.12466 -3.74556 -3.27788e-16)
(-8.21675 4.86228 -1.35025e-18)
(-2.16316 -0.258084 -9.18562e-16)
(-20.7614 3.60329 1.16704e-16)
(-2.84072 -1.00753 -2.11269e-16)
(-0.858751 9.51276 -2.14134e-16)
(-2.17394 -1.73119 5.64763e-18)
(-2.67597 -3.0796 -3.57324e-16)
(1.68029 -0.860016 8.60303e-16)
(8.45953 2.78476 -2.10186e-17)
(-6.78177 4.55391 -1.54884e-16)
(-7.98822 0.197601 0)
(-4.83327 2.19415 -2.36009e-16)
(-1.38684 -0.377579 -2.26537e-16)
(-2.07953 0.213098 1.16272e-15)
(-5.3396 8.92182 -6.87862e-17)
(1.91662 1.2768 0)
(-0.0427835 -0.804829 0)
(14.0859 1.36512 -1.05863e-18)
(1.49759 0.191215 -1.60058e-17)
(0.68911 -1.06184 6.34262e-16)
(-1.72193 -0.159438 3.15703e-16)
(1.07494 0.621262 4.2674e-16)
(1.29905 0.184477 1.1164e-16)
(-0.34626 -0.955847 -1.12456e-18)
(0.272923 0.0944598 0)
(-0.255668 0.565904 2.25455e-16)
(-2.03245 2.63318 0)
(-1.68359 1.81745 4.70849e-16)
(-6.00833 -0.118956 9.14883e-16)
(0.423568 0.331767 9.6363e-16)
(-2.63396 -3.65078 3.74383e-16)
(-4.9444 -5.76158 -6.73733e-16)
(0.00111068 1.92835 -8.49729e-16)
(-4.13949 -3.21208 2.09538e-16)
(-3.99235 -1.84984 -4.08468e-16)
(0.679995 1.84013 -7.27636e-16)
(0.789357 0.700937 -6.9194e-16)
(3.64644 0.0441495 0)
(-8.47588 8.26217 -6.07826e-16)
(-3.35631 0.332833 0)
(-14.7396 3.70564 0)
(-13.9406 6.68763 0)
(-1.54366 -3.27608 -2.90514e-16)
(-12.5372 -1.41786 -1.49252e-16)
(0.571232 -1.09495 -2.83188e-17)
(2.60757 3.32006 0)
(-2.73171 -1.52789 7.48962e-16)
(-2.83205 -0.986206 -8.40002e-16)
(-0.670601 -1.66734 0)
(-1.71287 2.60474 -2.09926e-16)
(-7.27663 4.39369 -2.85749e-16)
(-1.47539 1.67638 -6.42941e-16)
(-0.293894 -0.401731 -5.05233e-16)
(-6.49115 3.30108 3.80836e-16)
(1.46006 0.376693 7.20838e-16)
(-16.6198 -0.568567 2.57196e-16)
(-12.7064 3.39286 -5.03375e-16)
(6.03384 -1.19733 4.06725e-16)
(0.843531 -0.358013 0)
(4.22591 2.74631 -3.86275e-16)
(0.420947 -0.327372 7.22805e-16)
(1.20531 -0.267738 1.28322e-15)
(0.958435 -0.764371 0)
(-1.77578 -5.07591 0)
(-1.26236 0.723248 4.80452e-16)
(-0.754902 0.00113575 0)
(-1.77569 -0.107213 7.37098e-16)
(9.53815 1.85917 -7.02869e-17)
(-12.5815 11.5647 0)
(0.0350116 1.2939 5.81612e-16)
(-0.731755 -0.0578959 -4.90913e-16)
(-6.46043 -0.11657 0)
(-7.57367 0.934872 9.06857e-16)
(-0.259034 -0.0849846 2.24776e-16)
(-8.04562 -1.47547 3.40183e-16)
(1.1793 -0.664203 -4.77491e-16)
(-4.47912 -5.96102 8.06031e-16)
(-1.45706 0.272482 0)
(-0.00976037 -0.0656231 8.06332e-16)