/*--------------------------------*- C++ -*----------------------------------*\
  =========                 |
  \\      /  F ield         | OpenFOAM: The Open Source CFD Toolbox
   \\    /   O peration     | Website:  https://openfoam.org
    \\  /    A nd           | Version:  7
     \\/     M anipulation  |
\*---------------------------------------------------------------------------*/
FoamFile
{
    version     2.0;
    format      ascii;
    class       volScalarField;
    location    "3";
    object      p;
}
// * * * * * * * * * * * * * * * * * * * * * * * * * * * * * * * * * * * * * //

dimensions      [0 2 -2 0 0 0 0];

internalField   nonuniform List<scalar> 
13182
(
-1.4338e-09
-2.91322e-10
-1.02994e-09
-1.53148e-09
-4.78388e-10
-1.35902e-09
-1.36882e-09
-1.47408e-09
-1.55659e-09
-6.26206e-10
-6.27803e-10
-7.82767e-10
-1.37768e-09
-1.36499e-09
-1.34455e-09
-1.39792e-09
-1.54903e-09
-1.57572e-09
-1.32247e-09
-1.33589e-09
-1.32857e-09
-1.4407e-09
-1.3898e-09
-1.21425e-09
-1.18621e-09
-1.19717e-09
-1.48786e-09
-1.20343e-09
-8.00241e-10
-1.58265e-09
-1.58271e-09
-1.54873e-09
-1.40483e-09
-6.23068e-10
-5.68833e-10
-1.3444e-09
-1.50704e-09
-8.59074e-10
-9.13968e-10
-1.45639e-09
-2.75378e-10
-3.10821e-10
-1.08699e-09
-1.43761e-10
-1.14561e-09
-4.90942e-10
-1.52531e-09
-1.01345e-09
-9.70849e-10
-1.5027e-09
-1.15468e-09
-1.16936e-09
-6.45547e-10
-1.46546e-09
-1.37511e-09
-1.22491e-09
-8.26695e-10
-1.49135e-09
-1.37927e-09
-1.55667e-09
-1.50608e-09
-1.49461e-09
-1.47715e-09
-1.22724e-09
-1.12882e-09
-1.12055e-09
-1.38039e-09
-1.18366e-09
-5.03122e-10
-1.2458e-09
-1.4358e-10
-1.44359e-09
-1.45206e-09
-1.19452e-09
-2.57182e-10
-1.52344e-09
-1.54882e-09
-1.51976e-09
-1.44346e-09
-1.44109e-09
-1.58288e-09
-6.50465e-10
-1.32333e-09
-1.33553e-09
-2.47439e-10
-2.16125e-10
-2.57753e-10
-6.67822e-10
-1.22547e-09
-1.24993e-09
-7.56945e-10
-1.53087e-09
-7.06028e-10
-6.98321e-10
-1.43941e-09
-1.52073e-09
-7.4587e-10
-1.42041e-09
-1.51612e-09
-1.33235e-09
-1.3139e-09
-9.18885e-10
-1.11253e-09
-1.36345e-09
-1.43299e-09
-1.12031e-09
-3.10724e-10
-2.63956e-10
-1.52348e-09
-8.9677e-10
-1.49583e-09
-4.48864e-10
-4.20402e-10
-1.36519e-09
-1.12083e-09
-7.02134e-10
-1.47265e-09
-2.04847e-10
-1.24678e-09
-1.25255e-09
-1.23779e-09
-4.97833e-10
-1.55087e-09
-1.33929e-09
-1.01447e-09
-9.76472e-10
-1.33682e-09
-1.5657e-09
-1.34607e-09
-8.48337e-10
-6.86161e-11
-8.20044e-11
-1.50122e-09
-5.66583e-10
-1.36635e-09
-1.55495e-09
-1.54351e-09
-1.25552e-09
-1.34578e-09
-1.43237e-09
-7.03329e-10
-2.12456e-10
-2.44834e-10
-1.10526e-09
-1.08631e-09
-1.50415e-09
-1.42046e-09
-4.52166e-10
-1.56391e-09
-9.51226e-10
-1.34194e-10
-1.13528e-09
-1.14081e-09
-8.54749e-10
-1.2122e-09
-1.19665e-09
-2.00943e-10
-4.48418e-10
-3.62198e-10
-1.18168e-09
-1.198e-09
-8.41771e-10
-8.53492e-10
-1.4556e-09
-1.43716e-09
-1.0395e-09
-1.54763e-09
-1.24538e-09
-1.04443e-09
-4.31775e-10
-6.11858e-10
-1.38417e-09
-1.38212e-09
-9.0485e-11
-9.74931e-10
-1.4712e-09
-3.83204e-10
-7.4488e-10
-1.48027e-09
-1.34111e-09
-1.18418e-09
-8.89864e-10
-1.53069e-09
-1.27896e-09
-6.58443e-10
-9.36556e-10
-9.83998e-10
-1.46381e-09
-1.18342e-09
-1.11252e-09
-8.78168e-10
-1.53515e-09
-9.96133e-10
-1.88853e-10
-1.52565e-09
-1.09951e-09
-8.65604e-10
-1.30591e-09
-1.17065e-09
-1.23695e-09
-1.45064e-09
-1.45211e-09
-1.80672e-10
-1.5002e-09
-7.09171e-10
-2.13956e-10
-6.53724e-10
-6.25961e-11
-1.51276e-09
-6.5097e-10
-1.03984e-09
-4.92332e-11
-1.4823e-09
-1.37067e-09
-8.77728e-10
-1.27935e-09
-1.15969e-09
-1.51262e-09
-1.03606e-09
-1.39726e-10
-1.13627e-09
-1.16935e-09
-1.2314e-10
-1.35287e-09
-6.41857e-10
-1.5074e-09
-1.48586e-09
-1.57588e-09
-1.58225e-09
-1.43901e-09
-1.50636e-09
-1.43083e-09
-1.425e-09
-1.37157e-09
-1.47112e-09
-1.49299e-09
-1.08014e-09
-1.4867e-09
-1.48426e-09
-1.4168e-09
-1.8325e-10
-1.94711e-10
-1.47386e-09
-1.39012e-09
-1.3985e-09
-1.35619e-09
-1.25088e-09
-1.24549e-09
-1.53611e-09
-1.26079e-09
-1.39203e-09
-7.76164e-10
-1.003e-09
-1.01968e-09
-2.26121e-10
-1.52769e-09
-8.06166e-10
-1.10473e-10
-1.30048e-10
-4.6248e-10
-9.67649e-10
-1.55847e-09
-1.53018e-09
-1.59505e-09
-1.25542e-09
-1.12105e-09
-7.10003e-10
-1.50258e-09
-1.23202e-09
-1.532e-09
-1.51337e-09
-1.50832e-09
-1.45893e-09
-8.31567e-10
-1.53394e-09
-8.72214e-10
-1.48314e-09
-1.47601e-09
-1.25485e-09
-2.26277e-10
-1.57962e-09
-9.42577e-10
-9.2925e-10
-1.36431e-09
-1.42435e-09
-8.9408e-10
-9.11187e-10
-1.58169e-09
-5.07484e-10
-1.48473e-09
-1.51844e-09
-7.58017e-10
-4.51993e-10
-1.18198e-09
-1.54031e-09
-1.50263e-09
-1.5138e-09
-1.51321e-09
-1.56885e-09
-1.56643e-09
-1.11566e-09
-1.24959e-09
-1.43101e-09
-1.42589e-09
-6.54467e-10
-4.71963e-10
-1.27279e-09
-1.30715e-09
-1.5329e-09
-1.1172e-09
-1.41976e-09
-1.56946e-09
-9.87679e-10
-1.49031e-09
-1.52867e-09
-1.55469e-09
-1.5534e-09
-1.37754e-09
-1.58322e-09
-7.37633e-10
-6.76037e-10
-4.91429e-10
-1.45567e-09
-1.45803e-09
-1.37937e-09
-1.53383e-09
-1.16092e-09
-1.31072e-09
-1.15725e-09
-9.70423e-10
-1.32418e-09
-1.33252e-09
-7.95256e-10
-7.97449e-10
-7.73334e-10
-1.22808e-09
-1.24404e-09
-1.31631e-09
-1.56818e-09
-7.11674e-10
-1.92554e-10
-1.47613e-09
-1.5862e-09
-5.18456e-10
-5.38697e-10
-1.51444e-09
-1.22697e-09
-1.24327e-09
-1.36818e-09
-1.19657e-09
-1.21372e-09
-1.5449e-09
-4.37558e-10
-1.44603e-09
-1.44456e-09
-1.48658e-09
-1.43362e-09
-1.43759e-09
-1.53037e-09
-1.41393e-09
-6.99978e-10
-1.54868e-09
-4.05774e-10
-1.44307e-09
-4.84985e-10
-5.0647e-10
-1.55258e-09
-1.43276e-09
-1.43828e-09
-1.06317e-09
-1.51141e-09
-1.45798e-09
-7.89834e-10
-9.93572e-10
-1.41486e-09
-1.50264e-09
-9.39609e-10
-5.88126e-10
-1.66737e-10
-1.32559e-09
-1.23546e-09
-8.32228e-10
-1.52812e-09
-1.3753e-09
-1.12969e-09
-1.17169e-09
-1.09709e-09
-1.48186e-09
-4.82559e-10
-1.32876e-09
-1.19345e-09
-1.57423e-09
-1.57561e-09
-1.32685e-09
-1.31793e-09
-1.5069e-09
-1.50961e-09
-7.10946e-10
-1.07184e-09
-1.48835e-09
-8.00962e-10
-7.58323e-10
-1.26135e-09
-1.51318e-09
-1.495e-09
-8.20712e-10
-1.20371e-09
-1.55802e-09
-1.50669e-09
-1.12731e-09
-1.32667e-09
-1.33238e-09
-8.35438e-10
-1.12549e-09
-1.58746e-09
-4.90366e-10
-1.48946e-09
-6.96889e-10
-1.0667e-09
-1.39839e-09
-1.04027e-09
-1.42999e-09
-1.53481e-09
-1.53886e-09
-1.58637e-09
-5.87344e-10
-1.47755e-09
-1.16283e-09
-1.40603e-09
-1.43416e-09
-1.86826e-10
-1.21015e-09
-1.26944e-09
-1.51983e-09
-1.4279e-09
-6.12885e-10
-1.38661e-09
-9.76616e-10
-6.43936e-10
-1.37907e-09
-3.32915e-10
-9.70726e-10
-1.08201e-09
-1.29984e-09
-1.14872e-09
-1.5036e-09
-3.83776e-10
-1.50388e-09
-7.07404e-10
-1.57883e-09
-1.50818e-09
-9.21051e-10
-9.06891e-10
-1.48709e-09
-4.47749e-10
-1.21783e-09
-1.59373e-09
-1.52774e-09
-1.55003e-09
-1.47995e-09
-1.55805e-09
-1.4263e-09
-4.76707e-10
-1.46039e-09
-1.52021e-09
-1.58307e-09
-1.00265e-09
-1.04294e-09
-1.54713e-09
-1.4211e-09
-1.42246e-09
-5.21252e-10
-1.5732e-09
-1.18594e-09
-5.23994e-10
-9.51131e-10
-1.56564e-09
-8.03886e-10
-1.5646e-09
-1.54265e-09
-1.53873e-09
-1.5454e-09
-1.0962e-09
-1.50102e-09
-2.33656e-10
-8.43568e-10
-1.29558e-09
-7.55805e-10
-5.24822e-10
-2.66389e-10
-1.51019e-09
-1.1159e-09
-1.50339e-09
-4.43161e-10
-1.59691e-09
-8.78951e-10
-1.1781e-09
-2.59636e-10
-1.3888e-09
-5.93711e-10
-1.51609e-09
-1.49076e-09
-1.50687e-09
-5.17399e-10
-8.48379e-10
-1.35352e-09
-1.51333e-09
-1.50763e-09
-1.05972e-09
-8.81992e-10
-9.05356e-10
-8.79553e-10
-1.39071e-09
-1.25234e-09
-1.18053e-09
-1.41024e-09
-9.27678e-10
-1.52511e-09
-1.33565e-09
-4.18944e-10
-1.35794e-09
-1.43567e-09
-1.43827e-09
-9.7149e-10
-1.07425e-09
-1.09619e-09
-1.51822e-09
-1.17411e-09
-1.57846e-09
-1.16654e-09
-1.1738e-09
-1.48875e-09
-1.39483e-09
-1.39757e-09
-1.43742e-10
-1.35895e-09
-1.34999e-09
-8.04588e-10
-1.2252e-09
-1.17421e-09
-1.31197e-09
-7.72845e-10
-1.57982e-09
-9.04734e-10
-1.40616e-09
-1.13069e-09
-1.11038e-09
-1.43673e-09
-9.12913e-10
-1.54402e-09
-1.57817e-09
-1.41748e-09
-1.42144e-09
-1.42762e-09
-1.42093e-09
-1.49768e-09
-1.58485e-09
-1.4779e-09
-1.22353e-09
-1.48773e-09
-4.76452e-10
-1.54974e-09
-1.44662e-09
-1.15148e-09
-1.50777e-09
-1.43237e-09
-1.15797e-09
-3.6544e-10
-8.89001e-10
-1.32706e-09
-1.30477e-09
-8.23301e-10
-8.0358e-10
-1.19949e-09
-1.50564e-09
-1.45483e-09
-1.43697e-09
-1.37948e-09
-1.45715e-09
-1.00377e-09
-1.30483e-09
-7.16375e-10
-1.52083e-09
-1.4117e-09
-1.39677e-09
-1.31862e-09
-1.55093e-09
-1.44765e-09
-1.45171e-09
-9.83955e-10
-9.85365e-10
-2.8964e-10
-1.44173e-09
-1.31275e-09
-1.39838e-09
-8.65186e-10
-1.10671e-09
-1.50647e-09
-1.59293e-09
-1.58551e-09
-1.46764e-09
-1.44429e-09
-1.44007e-09
-1.43304e-09
-6.09039e-10
-1.1737e-09
-6.03493e-10
-1.13672e-09
-1.51823e-09
-1.52587e-09
-1.57477e-09
-6.80425e-10
-1.45847e-09
-6.7803e-10
-1.04507e-09
-3.5287e-10
-8.29152e-10
-1.23657e-09
-6.45392e-10
-1.1388e-09
-1.50495e-09
-7.27823e-10
-1.42376e-09
-1.55109e-09
-6.52516e-10
-7.08178e-10
-1.58095e-09
-1.38049e-09
-6.45539e-10
-1.48576e-09
-1.58372e-09
-1.58498e-09
-1.27258e-09
-1.23209e-09
-6.25288e-10
-8.63632e-10
-1.48187e-09
-1.42878e-09
-1.5163e-09
-1.37318e-09
-1.49556e-09
-8.82458e-10
-1.19639e-09
-1.44764e-09
-1.54962e-09
-4.76156e-10
-8.4607e-10
-1.48308e-09
-9.18542e-10
-5.77646e-10
-1.53419e-09
-1.53178e-09
-8.5136e-10
-1.51229e-09
-1.53237e-09
-7.27056e-10
-1.57994e-09
-1.01182e-09
-7.246e-10
-7.09737e-10
-1.54053e-09
-9.99523e-10
-6.98236e-10
-1.31195e-09
-1.33804e-09
-1.32637e-09
-1.43805e-09
-1.44054e-09
-1.55792e-09
-1.12528e-09
-1.59677e-09
-1.40346e-09
-1.55929e-09
-1.31562e-09
-1.51424e-09
-5.18142e-10
-1.58272e-09
-1.45998e-09
-6.85658e-10
-1.52311e-09
-1.14585e-09
-1.5369e-09
-1.53636e-09
-7.93092e-10
-1.55389e-09
-7.30322e-10
-7.61771e-10
-7.34162e-10
-7.36246e-10
-1.52785e-09
-1.3755e-09
-1.38438e-09
-3.66243e-10
-8.25613e-10
-1.50717e-09
-1.50755e-09
-1.42623e-09
-1.34114e-09
-1.18289e-09
-6.50887e-10
-1.50759e-09
-1.50888e-09
-1.4654e-09
-1.44387e-09
-4.15834e-10
-1.11383e-09
-1.50594e-09
-1.49467e-09
-3.12863e-10
-1.15759e-09
-1.45978e-09
-1.51464e-09
-1.43988e-09
-1.43232e-09
-6.35012e-10
-7.91786e-10
-1.51743e-09
-1.52265e-09
-1.49058e-09
-1.58219e-10
-4.41597e-10
-8.70834e-10
-1.48382e-09
-1.32889e-09
-1.58362e-09
-1.59245e-09
-4.1633e-10
-3.79299e-10
-1.01554e-09
-1.59811e-09
-1.36129e-09
-1.28029e-09
-1.21433e-09
-1.4197e-09
-1.3125e-09
-8.842e-10
-1.46712e-09
-1.49972e-09
-1.30636e-09
-1.14549e-09
-1.15676e-09
-1.50419e-09
-1.16281e-09
-1.16512e-09
-1.58699e-09
-7.65872e-10
-1.23634e-09
-1.29752e-09
-1.36194e-09
-1.19466e-09
-1.54486e-09
-6.92024e-10
-1.31044e-09
-1.4352e-09
-4.35107e-10
-1.50701e-09
-1.13789e-09
-1.30308e-09
-1.54887e-09
-5.40025e-10
-1.45948e-09
-1.54296e-09
-5.4383e-10
-9.80512e-10
-1.53042e-09
-1.56528e-09
-1.24102e-09
-1.34595e-09
-8.04018e-10
-1.49793e-09
-2.71267e-10
-2.30494e-10
-1.48644e-09
-1.34466e-09
-1.54688e-09
-1.50709e-09
-6.89238e-10
-1.19585e-09
-1.51127e-09
-1.53046e-09
-1.17368e-09
-8.9909e-10
-1.55882e-09
-1.21638e-09
-1.38301e-10
-1.1843e-10
-1.56967e-09
-1.32958e-09
-1.33768e-09
-1.03006e-09
-1.13027e-09
-3.6566e-10
-1.4381e-09
-7.50792e-10
-1.22291e-09
-6.6547e-10
-1.46581e-09
-1.40656e-09
-1.4868e-09
-6.96528e-10
-8.30477e-10
-1.14395e-09
-8.6917e-10
-1.4942e-09
-3.95051e-10
-1.52833e-09
-1.12235e-09
-1.50045e-09
-1.45018e-09
-1.29293e-09
-1.22379e-09
-2.14656e-10
-6.81616e-10
-7.92226e-10
-8.3863e-10
-4.45827e-10
-8.7218e-10
-1.53397e-09
-1.47933e-09
-1.18393e-09
-1.18893e-09
-1.58236e-09
-1.01664e-09
-1.2851e-09
-1.27368e-09
-1.49557e-09
-6.55149e-10
-5.52121e-10
-1.36886e-09
-1.31345e-09
-1.47423e-09
-1.34851e-09
-1.47405e-09
-1.48997e-09
-1.25666e-09
-1.29519e-09
-4.99616e-10
-5.06978e-10
-9.17178e-10
-1.22552e-09
-1.56949e-09
-8.54631e-10
-1.28702e-09
-1.52835e-09
-1.37446e-09
-1.2736e-09
-1.27592e-09
-7.6553e-10
-1.28614e-09
-1.04428e-09
-1.50532e-09
-1.4332e-09
-1.33463e-09
-1.54704e-09
-1.36345e-09
-1.06183e-09
-7.12158e-11
-1.59219e-09
-1.47686e-09
-2.10685e-10
-1.33926e-09
-5.22033e-10
-1.58003e-09
-4.10921e-10
-1.06702e-09
-1.49718e-09
-2.29291e-10
-1.30834e-09
-1.42251e-09
-1.54405e-09
-1.53111e-09
-1.53067e-09
-1.14326e-09
-1.56214e-09
-1.09492e-09
-1.45991e-09
-1.44275e-09
-1.82248e-10
-1.52564e-09
-1.1158e-09
-1.45963e-09
-1.53156e-09
-4.82861e-10
-8.8773e-10
-1.24375e-09
-1.44046e-09
-1.50926e-09
-1.5403e-09
-1.19185e-09
-1.18401e-09
-1.39853e-09
-1.47728e-10
-1.46312e-09
-1.50206e-09
-8.37378e-10
-1.48303e-09
-7.67423e-10
-1.14463e-09
-1.00309e-10
-1.44078e-09
-5.49294e-10
-1.34505e-09
-8.26878e-10
-1.58162e-09
-1.47759e-09
-1.45012e-09
-8.45462e-10
-8.7907e-10
-1.42328e-09
-4.11385e-10
-5.59446e-10
-6.00472e-10
-5.90229e-10
-1.0185e-09
-1.41782e-09
-1.05997e-09
-9.04738e-10
-9.28765e-10
-6.91252e-10
-1.46103e-09
-1.46009e-09
-9.46306e-10
-1.43455e-09
-1.54881e-09
-1.77899e-10
-1.55072e-09
-1.37171e-09
-1.34235e-09
-1.37784e-09
-1.49238e-09
-1.49415e-09
-1.45005e-09
-1.44996e-09
-8.50659e-10
-1.45901e-09
-1.3738e-09
-1.42537e-09
-1.28881e-09
-1.27147e-09
-1.29875e-09
-6.31597e-10
-1.18962e-09
-1.19589e-09
-1.50394e-09
-6.32235e-10
-1.05313e-09
-1.16845e-09
-8.07237e-10
-7.79667e-10
-1.11821e-09
-5.25281e-10
-1.44953e-09
-9.4966e-10
-1.32161e-09
-1.31586e-09
-8.81092e-10
-1.36042e-09
-5.64577e-10
-1.12721e-09
-1.50516e-09
-6.44696e-10
-1.56816e-09
-8.75821e-10
-8.2301e-10
-1.09991e-09
-1.58641e-09
-1.13261e-09
-1.54225e-09
-1.53727e-09
-1.33835e-09
-1.13365e-09
-1.43562e-09
-1.5203e-09
-1.32902e-09
-1.75362e-10
-6.84354e-10
-1.3148e-09
-1.48523e-09
-1.42078e-09
-1.40902e-09
-1.3684e-09
-4.8758e-10
-1.47808e-09
-1.20347e-09
-1.51327e-09
-7.94419e-10
-1.52909e-09
-1.13741e-09
-1.28802e-09
-1.27943e-09
-1.3125e-09
-1.34504e-09
-1.33656e-09
-1.33067e-09
-1.3765e-09
-4.88046e-10
-1.35464e-09
-1.24359e-10
-1.5086e-09
-1.51214e-09
-1.51278e-09
-1.23194e-09
-1.37702e-09
-1.17401e-09
-1.57059e-09
-1.43076e-09
-1.41388e-09
-1.34272e-09
-4.07993e-10
-1.48545e-09
-5.46715e-10
-1.50037e-09
-1.58632e-09
-1.26939e-09
-1.27202e-09
-9.23038e-10
-8.52151e-11
-1.29466e-09
-6.81646e-10
-1.48771e-09
-1.5058e-09
-1.50704e-09
-1.50312e-09
-1.24399e-09
-1.24587e-09
-1.58269e-09
-1.50784e-09
-1.43352e-09
-1.59722e-09
-1.48028e-09
-1.56032e-09
-1.02299e-09
-1.06424e-09
-1.26912e-10
-9.24868e-10
-3.78013e-10
-1.43025e-09
-4.10852e-10
-1.53824e-09
-8.85021e-10
-1.55752e-09
-1.56067e-09
-1.51095e-09
-1.43739e-09
-4.65002e-10
-1.26176e-09
-1.20336e-09
-1.46401e-09
-1.08374e-09
-1.46762e-09
-8.5316e-10
-9.34196e-10
-1.18082e-09
-2.56668e-10
-1.51958e-09
-4.8625e-10
-4.83981e-10
-1.23515e-09
-1.54592e-09
-1.51484e-09
-7.86603e-10
-1.13029e-09
-1.38011e-09
-1.07053e-09
-1.25155e-09
-5.24445e-10
-3.03125e-10
-1.50729e-09
-1.07532e-09
-1.24142e-09
-9.88731e-10
-9.27106e-10
-9.13033e-10
-1.26562e-09
-1.58972e-09
-1.56947e-09
-1.26476e-09
-6.23965e-10
-7.80255e-10
-1.45081e-09
-1.50831e-09
-1.50814e-09
-4.82004e-10
-4.92491e-10
-1.54954e-09
-1.54745e-09
-1.55989e-09
-1.09864e-09
-1.11269e-09
-1.27377e-09
-4.30603e-10
-7.93779e-10
-1.46424e-09
-7.90902e-10
-7.92144e-10
-1.46615e-09
-1.31011e-09
-1.14944e-09
-1.15104e-09
-1.4389e-09
-1.31959e-09
-1.37584e-09
-3.9524e-10
-7.10171e-10
-9.65179e-10
-9.50194e-10
-1.46624e-09
-8.82664e-10
-1.50366e-09
-1.19334e-09
-1.15394e-09
-1.36847e-09
-2.17142e-10
-1.27057e-09
-7.09837e-10
-1.32439e-09
-1.45233e-09
-1.34581e-10
-1.2923e-10
-1.47415e-09
-3.55509e-10
-1.5076e-09
-2.41514e-10
-1.26802e-09
-1.38958e-09
-1.56255e-09
-1.51456e-09
-9.92313e-10
-1.37092e-09
-9.13924e-10
-1.42798e-09
-1.38752e-09
-1.39877e-09
-1.01705e-09
-9.93084e-10
-1.54832e-09
-3.13994e-10
-6.65359e-10
-1.54583e-09
-1.58235e-09
-1.57153e-09
-1.46075e-09
-1.46998e-10
-9.10103e-10
-9.21264e-10
-4.28618e-10
-1.42698e-09
-1.21042e-09
-1.30291e-09
-1.35845e-09
-5.26903e-10
-1.34765e-09
-8.64403e-10
-9.05462e-10
-1.58146e-09
-7.64201e-10
-1.41302e-09
-1.2726e-09
-8.40665e-10
-7.27156e-10
-1.50975e-09
-5.43005e-10
-4.30473e-10
-1.50805e-09
-1.20923e-09
-1.47726e-09
-1.41169e-09
-1.77971e-10
-1.14448e-09
-9.17268e-10
-1.48173e-09
-1.43501e-09
-1.44515e-09
-1.42189e-09
-1.52959e-09
-9.3395e-10
-1.42796e-09
-7.42527e-10
-1.15277e-09
-1.42242e-09
-1.2928e-09
-8.43686e-10
-7.87592e-11
-1.2818e-09
-1.50842e-09
-1.59935e-09
-1.25088e-09
-1.25716e-09
-3.86646e-10
-1.43393e-09
-1.25307e-09
-8.58973e-10
-1.15992e-09
-6.16459e-10
-1.36716e-09
-1.43993e-09
-1.44221e-09
-1.2653e-09
-1.12652e-09
-1.47251e-09
-1.43329e-09
-9.33561e-10
-8.22201e-10
-5.64806e-10
-4.62934e-10
-1.21326e-09
-1.4285e-09
-1.36511e-09
-8.92952e-10
-1.24452e-09
-1.43413e-09
-7.6076e-10
-1.51187e-09
-7.46901e-10
-2.24527e-10
-7.64382e-10
-1.51837e-09
-6.81837e-10
-1.36399e-09
-1.21238e-09
-1.10189e-09
-1.33873e-09
-1.21625e-09
-1.2073e-09
-1.09176e-09
-1.12408e-09
-1.22978e-09
-2.0983e-10
-1.5105e-09
-1.48239e-09
-6.59328e-10
-1.5291e-09
-6.49386e-10
-7.32232e-10
-1.00161e-09
-1.59109e-09
-1.4424e-09
-4.00939e-10
-3.34971e-10
-1.14455e-09
-1.40693e-09
-1.42976e-09
-1.33614e-09
-1.01242e-09
-4.77423e-10
-1.57022e-09
-1.56922e-09
-1.11624e-10
-1.2142e-09
-4.4424e-10
-1.24108e-09
-1.50318e-09
-1.49937e-09
-1.44149e-09
-1.3863e-09
-1.50261e-09
-1.0162e-09
-1.39325e-09
-1.31435e-09
-1.31591e-09
-6.43307e-10
-1.13774e-09
-1.30677e-09
-1.49942e-09
-9.91807e-10
-1.14424e-09
-1.14872e-09
-9.22116e-10
-1.01445e-09
-1.00585e-09
-7.25596e-10
-1.50944e-09
-1.53713e-09
-1.30388e-09
-1.26161e-09
-1.1921e-09
-1.1818e-09
-9.73472e-10
-1.07021e-09
-1.49762e-09
-1.49434e-09
-1.37537e-09
-1.29148e-09
-1.30539e-09
-9.98549e-10
-1.56153e-09
-1.55967e-09
-1.48642e-09
-9.76251e-10
-1.25818e-09
-1.28968e-09
-1.28579e-09
-1.29251e-09
-3.50489e-10
-1.49292e-09
-1.50991e-09
-2.95367e-10
-2.79749e-10
-1.33214e-09
-1.54924e-09
-1.54665e-09
-9.15117e-10
-1.52114e-09
-1.33082e-09
-4.62346e-10
-1.30065e-09
-1.34326e-09
-1.56193e-09
-1.56113e-09
-1.5516e-09
-1.52474e-09
-8.72127e-10
-1.47024e-09
-8.63646e-10
-8.73552e-10
-1.38501e-09
-1.15441e-09
-1.49665e-09
-9.18898e-10
-1.31068e-09
-1.28275e-09
-4.27956e-10
-4.84401e-10
-9.17161e-10
-2.35819e-10
-1.23913e-09
-2.44361e-10
-1.29461e-09
-1.47307e-09
-5.10186e-10
-1.11009e-09
-1.10571e-09
-1.52404e-09
-9.74908e-10
-1.42099e-09
-1.53042e-09
-1.84175e-10
-1.5159e-09
-1.50763e-09
-1.57733e-09
-1.39794e-09
-1.39219e-09
-1.01933e-09
-1.45794e-09
-1.58711e-09
-1.06765e-09
-1.49596e-09
-1.49513e-09
-8.63705e-10
-8.87678e-10
-1.5062e-09
-9.30285e-10
-1.563e-09
-1.5126e-09
-1.51369e-09
-1.51689e-09
-4.39092e-10
-1.50795e-09
-1.51382e-09
-2.22568e-10
-4.41127e-10
-1.10001e-09
-1.47862e-09
-1.1563e-09
-1.38459e-09
-1.29916e-09
-1.17298e-09
-1.37161e-09
-1.34454e-09
-1.52135e-09
-1.49691e-09
-1.37411e-09
-1.52438e-09
-1.5919e-09
-1.57041e-09
-8.88525e-10
-1.51188e-09
-1.51067e-09
-1.51173e-09
-1.0265e-09
-1.05184e-09
-1.50992e-09
-1.24809e-09
-1.50787e-09
-1.47708e-09
-1.34163e-09
-1.5956e-09
-7.20281e-10
-1.02233e-09
-1.49093e-09
-1.31654e-09
-1.34058e-09
-8.63451e-10
-1.15383e-09
-1.2685e-09
-1.50928e-09
-6.50073e-10
-1.35529e-09
-1.53382e-09
-1.57296e-09
-1.57509e-09
-1.43857e-09
-1.57944e-09
-1.49941e-09
-8.254e-10
-1.5417e-09
-1.44532e-09
-1.47647e-09
-1.14754e-09
-1.57891e-09
-9.9931e-10
-9.02721e-10
-1.49231e-09
-1.49094e-09
-1.35098e-09
-1.78572e-10
-1.33549e-09
-1.03203e-09
-1.16471e-09
-1.24412e-09
-1.24939e-09
-1.2483e-09
-9.85557e-10
-1.28052e-09
-1.57775e-09
-1.51155e-09
-1.15573e-09
-1.3889e-09
-1.06598e-09
-1.02262e-09
-1.48984e-09
-1.19152e-09
-1.17265e-09
-1.15151e-09
-9.99507e-10
-1.45345e-09
-1.29514e-09
-1.44035e-09
-1.58467e-09
-1.11281e-09
-1.50762e-09
-1.55212e-09
-1.5517e-09
-3.5239e-10
-1.14065e-09
-1.13633e-09
-1.9774e-10
-1.00143e-09
-7.13218e-10
-1.42166e-09
-1.46026e-09
-1.50732e-09
-1.23049e-09
-5.44379e-10
-5.62471e-10
-1.50959e-09
-1.22373e-09
-1.56189e-09
-6.49335e-10
-1.56754e-09
-1.56676e-09
-1.5262e-09
-1.36872e-09
-9.40894e-10
-2.75393e-10
-5.60976e-10
-1.08797e-09
-1.10709e-09
-1.45481e-09
-4.24962e-10
-4.33993e-10
-4.39611e-10
-1.52826e-09
-1.52982e-09
-1.43172e-09
-1.27464e-09
-1.0689e-09
-1.09401e-09
-9.74015e-10
-7.78211e-10
-1.0807e-09
-7.01694e-10
-1.34004e-09
-1.45737e-09
-1.38866e-09
-1.38449e-09
-1.50732e-09
-7.02597e-10
-1.0905e-09
-1.42448e-09
-9.32434e-10
-7.78306e-10
-8.87848e-10
-4.82217e-10
-1.363e-09
-1.37545e-09
-1.50525e-09
-8.89889e-10
-1.13941e-09
-1.5313e-09
-1.53088e-09
-1.08596e-09
-1.04292e-09
-4.3726e-10
-1.45869e-09
-9.43998e-10
-2.13551e-10
-1.35105e-09
-8.85342e-10
-5.36622e-10
-2.3789e-10
-1.41822e-09
-1.41908e-09
-6.19116e-10
-1.51056e-09
-1.86985e-10
-1.57423e-09
-1.45932e-09
-8.80231e-10
-1.46691e-09
-1.45969e-09
-1.24018e-09
-1.5242e-09
-6.78545e-10
-8.22275e-10
-1.24307e-09
-1.15131e-09
-1.57395e-09
-1.51886e-09
-1.26948e-09
-4.05145e-10
-5.52955e-10
-1.54048e-09
-1.54079e-09
-1.53525e-09
-1.60009e-09
-7.76257e-10
-1.44422e-09
-7.30503e-10
-7.26464e-10
-1.42895e-09
-1.49867e-09
-1.51691e-09
-1.56304e-09
-5.87483e-10
-6.63883e-10
-2.86811e-10
-1.16283e-09
-1.16022e-09
-1.26959e-09
-1.35233e-09
-1.26002e-09
-1.59773e-09
-5.4393e-10
-1.46195e-09
-1.2617e-09
-1.58985e-09
-4.23829e-10
-1.4326e-09
-1.01785e-09
-7.64283e-10
-8.45181e-10
-3.08393e-10
-1.31045e-09
-1.34407e-09
-4.30446e-10
-4.76697e-10
-2.70845e-10
-4.04268e-10
-1.44102e-09
-8.03814e-10
-6.06218e-10
-6.4062e-10
-1.49178e-09
-4.23664e-10
-1.34896e-09
-1.57309e-09
-1.49954e-10
-1.4629e-09
-1.10997e-09
-4.295e-10
-1.22017e-09
-9.03176e-10
-1.30115e-09
-1.22668e-09
-4.76144e-10
-1.50259e-09
-1.44896e-09
-1.50254e-09
-1.42596e-09
-1.54199e-09
-1.59855e-09
-3.92056e-10
-1.25848e-09
-1.49853e-09
-8.88399e-10
-8.42397e-10
-1.47403e-09
-1.49389e-09
-1.38609e-09
-1.07393e-09
-1.45622e-09
-1.50072e-09
-1.50078e-09
-1.57042e-09
-1.46502e-09
-4.68873e-10
-5.00665e-10
-1.23812e-09
-1.46317e-09
-1.49225e-09
-1.49219e-09
-1.53819e-09
-1.53537e-09
-1.2392e-09
-1.52638e-09
-1.34136e-09
-1.3445e-09
-1.3613e-09
-1.42231e-09
-3.7918e-10
-1.58749e-09
-1.45408e-09
-4.77301e-10
-1.48958e-09
-8.63305e-10
-1.4674e-09
-6.86672e-10
-1.54724e-09
-1.57002e-09
-1.49154e-09
-8.82857e-10
-8.39748e-10
-1.53011e-09
-1.57932e-09
-1.47398e-09
-1.49409e-09
-2.69345e-10
-9.08319e-10
-1.38972e-09
-1.34797e-09
-1.2915e-09
-1.27517e-09
-1.47099e-09
-1.58939e-09
-1.34315e-09
-1.52686e-09
-1.28733e-09
-1.56298e-09
-1.36383e-09
-1.36131e-09
-1.46136e-09
-1.21297e-09
-1.41051e-09
-1.14007e-09
-1.43666e-09
-3.01484e-10
-7.22206e-10
-1.47075e-09
-4.93063e-10
-1.08278e-09
-9.80991e-10
-3.21888e-10
-1.43405e-09
-1.23353e-09
-1.51881e-09
-1.44783e-09
-9.87909e-10
-9.98203e-11
-1.42283e-09
-1.50172e-09
-9.32266e-10
-5.15255e-10
-8.01647e-10
-7.87089e-10
-8.59384e-10
-1.12281e-09
-1.44248e-09
-1.48878e-09
-1.23376e-09
-9.10156e-10
-1.39683e-09
-1.52299e-09
-1.45839e-09
-1.31228e-09
-1.45045e-09
-1.27393e-09
-1.24193e-10
-1.44409e-09
-1.04674e-09
-1.01569e-09
-7.08091e-10
-9.84278e-10
-1.59691e-09
-1.59756e-09
-1.33606e-09
-2.3609e-10
-9.74424e-10
-1.53326e-09
-4.68319e-10
-1.46151e-09
-1.52325e-09
-6.68646e-10
-7.00961e-10
-2.7278e-10
-7.43783e-10
-1.57956e-09
-1.52338e-09
-1.30761e-09
-1.57061e-09
-1.43495e-09
-1.22156e-09
-1.58529e-09
-1.50397e-09
-1.35387e-09
-1.52052e-09
-8.40896e-10
-1.5211e-09
-6.04372e-10
-6.17345e-10
-8.82346e-10
-1.25054e-09
-1.52429e-09
-1.42394e-09
-1.37688e-09
-4.15877e-10
-1.57255e-09
-1.51132e-09
-1.19064e-09
-1.20354e-09
-1.07393e-09
-1.069e-09
-1.36136e-09
-1.37126e-09
-1.28095e-09
-1.54226e-09
-5.28575e-10
-1.43043e-09
-2.4045e-10
-1.23454e-09
-1.40359e-09
-4.22011e-10
-1.53002e-09
-1.5275e-09
-1.48852e-09
-1.51241e-09
-1.51263e-09
-1.50881e-09
-1.39895e-09
-1.59973e-09
-1.33213e-09
-1.20502e-09
-1.57036e-09
-1.31199e-09
-1.4681e-09
-8.13352e-10
-8.74453e-10
-8.85928e-10
-1.33725e-09
-1.59231e-09
-1.59343e-09
-9.29102e-10
-1.21211e-09
-1.51888e-09
-1.34947e-09
-1.44243e-09
-4.28094e-10
-7.0626e-10
-6.48117e-10
-6.44687e-10
-1.59619e-09
-1.29696e-09
-1.31271e-09
-1.08196e-09
-1.4353e-09
-1.48989e-09
-1.54046e-09
-1.51426e-09
-4.77918e-10
-4.65774e-10
-9.28678e-10
-7.86441e-10
-1.54109e-09
-1.51592e-09
-1.28445e-09
-1.71323e-10
-1.53452e-09
-7.38236e-10
-1.06812e-09
-8.68091e-11
-1.0671e-09
-1.03383e-09
-1.34122e-09
-5.62266e-10
-1.39167e-09
-1.38475e-09
-1.39148e-09
-1.32858e-09
-1.21053e-09
-1.46248e-09
-1.54501e-09
-8.2143e-10
-1.56819e-09
-1.58263e-09
-6.60706e-10
-1.4643e-09
-8.60526e-10
-1.29248e-09
-1.2816e-09
-1.50172e-09
-1.50648e-09
-1.09466e-09
-1.42291e-09
-1.42503e-09
-1.43245e-09
-6.98321e-10
-9.42152e-10
-9.7069e-10
-1.4523e-09
-3.85421e-10
-1.41889e-09
-9.51804e-10
-8.82597e-10
-1.41066e-09
-1.32065e-09
-1.49013e-09
-1.38798e-10
-1.4606e-09
-1.46033e-09
-1.20066e-09
-4.65246e-10
-1.55932e-09
-1.50661e-09
-1.237e-09
-1.57853e-09
-1.23622e-09
-1.46508e-09
-1.1408e-09
-1.50503e-09
-8.81622e-10
-6.26859e-10
-6.59351e-10
-1.49589e-09
-8.77318e-10
-1.41386e-09
-1.28373e-09
-1.39935e-09
-8.44978e-10
-1.0662e-09
-1.27693e-09
-1.51189e-09
-1.51298e-09
-1.44781e-09
-1.31014e-09
-1.39036e-09
-6.01764e-10
-1.56575e-09
-1.13453e-09
-1.13239e-09
-7.0181e-10
-1.50683e-09
-9.53614e-10
-4.95527e-10
-1.2683e-09
-1.53428e-09
-1.53544e-09
-1.4326e-09
-1.52682e-09
-1.58533e-09
-1.23001e-09
-6.58687e-10
-1.36743e-09
-2.27917e-10
-6.28458e-10
-1.22929e-09
-1.22898e-09
-1.5453e-10
-1.58244e-09
-6.26256e-10
-3.13878e-10
-1.52732e-09
-7.68356e-10
-1.48018e-09
-5.22841e-10
-1.09041e-09
-1.52663e-09
-1.53878e-09
-1.58683e-09
-1.52153e-09
-1.27847e-09
-1.52592e-09
-1.47366e-09
-1.47528e-09
-1.50453e-09
-1.56046e-09
-8.92482e-10
-1.21183e-09
-5.16612e-10
-1.36562e-09
-7.54804e-10
-5.2756e-10
-1.03081e-09
-8.91981e-10
-1.5173e-09
-1.21311e-09
-1.23008e-09
-4.597e-10
-1.29356e-09
-1.55628e-09
-1.24427e-09
-8.71966e-11
-1.05978e-10
-1.55322e-09
-1.32373e-09
-1.50224e-10
-1.03445e-09
-1.50233e-09
-1.46634e-09
-5.39099e-10
-1.36643e-09
-1.51676e-09
-1.50849e-09
-5.79621e-10
-6.09289e-10
-1.98154e-10
-1.3063e-09
-1.30649e-09
-1.51045e-09
-1.2148e-09
-1.21468e-09
-1.09149e-10
-4.47397e-10
-1.05894e-09
-7.04983e-11
-1.28125e-09
-1.51131e-09
-4.8094e-10
-5.02028e-10
-1.85156e-10
-1.50741e-09
-1.48967e-09
-1.49207e-09
-1.5698e-09
-1.56692e-09
-1.43034e-09
-8.41608e-10
-8.17197e-10
-1.52308e-09
-1.52552e-09
-1.52859e-09
-1.53076e-09
-1.59641e-09
-1.46161e-09
-1.45495e-09
-1.22136e-09
-4.77476e-10
-1.06202e-09
-1.16194e-09
-6.64329e-10
-1.29378e-09
-1.51444e-09
-1.49435e-09
-8.55005e-10
-1.24271e-09
-1.51563e-09
-1.58412e-09
-1.59901e-09
-3.8709e-10
-9.87477e-10
-1.34151e-09
-6.40125e-10
-1.52793e-09
-1.5163e-09
-1.19701e-09
-1.19845e-09
-8.93601e-10
-1.28503e-09
-1.3994e-09
-8.49742e-10
-1.53822e-09
-1.43646e-09
-1.42978e-09
-1.42145e-09
-1.41334e-09
-2.63643e-10
-9.27008e-10
-9.63467e-10
-1.40986e-09
-1.55783e-09
-1.22089e-09
-3.56228e-10
-2.75884e-10
-2.74547e-10
-8.62819e-10
-5.80146e-10
-1.47286e-09
-1.49411e-09
-1.38777e-09
-3.33622e-10
-1.38437e-09
-1.5775e-09
-1.51638e-09
-1.28833e-09
-1.55868e-09
-1.5926e-09
-1.59338e-09
-1.31319e-09
-1.4829e-09
-1.44226e-09
-3.79703e-10
-1.52172e-09
-1.49866e-09
-9.21473e-10
-9.5819e-10
-1.26869e-09
-1.39077e-09
-1.38707e-09
-1.48484e-09
-1.22727e-09
-1.48466e-09
-4.42483e-10
-9.22946e-10
-9.38156e-10
-1.11508e-09
-1.11958e-09
-1.10271e-09
-1.07582e-09
-8.76401e-10
-1.20325e-09
-3.82229e-10
-4.2087e-10
-1.57829e-09
-1.57036e-09
-1.57181e-09
-1.568e-09
-1.69829e-10
-1.3974e-10
-1.42649e-09
-1.39649e-09
-1.12895e-09
-8.28025e-10
-7.10822e-10
-1.41437e-09
-1.1915e-09
-1.3431e-09
-1.43849e-09
-7.32133e-11
-5.93445e-10
-1.11341e-09
-1.34896e-09
-1.35322e-09
-1.17383e-09
-1.54646e-09
-1.56045e-09
-6.55774e-11
-7.12381e-11
-1.52308e-09
-5.70257e-10
-1.47978e-09
-9.07853e-10
-6.25826e-10
-1.226e-09
-1.44731e-09
-1.37301e-09
-8.85475e-10
-7.65759e-10
-1.50478e-09
-1.3219e-09
-1.46125e-09
-3.89674e-10
-1.56585e-09
-8.28868e-10
-8.40209e-10
-1.4953e-09
-1.10439e-09
-1.45782e-09
-1.36135e-09
-1.35839e-09
-6.05481e-10
-9.10165e-10
-4.39578e-10
-1.6809e-10
-1.8382e-10
-1.72945e-10
-1.52875e-09
-1.52905e-09
-1.31568e-09
-1.34453e-09
-1.47789e-09
-1.51106e-09
-1.51383e-09
-1.26419e-09
-1.05125e-09
-2.2095e-10
-1.55285e-09
-1.48923e-09
-1.18703e-09
-1.26629e-09
-1.26337e-09
-7.83185e-10
-1.26888e-09
-1.42824e-09
-1.02222e-09
-1.46223e-09
-1.52792e-09
-1.56158e-09
-1.49276e-09
-5.91648e-11
-1.05086e-09
-1.59954e-09
-1.37259e-09
-1.35755e-09
-1.27471e-09
-1.37872e-09
-1.37955e-09
-9.00883e-10
-6.08908e-10
-1.37193e-09
-1.10867e-09
-1.32388e-09
-1.33925e-09
-1.44108e-09
-1.1804e-09
-1.28558e-09
-1.13336e-09
-1.14174e-09
-9.45266e-10
-1.54e-09
-1.44309e-09
-1.55058e-09
-1.56427e-09
-4.31762e-10
-1.39683e-09
-7.14795e-10
-7.83001e-10
-1.39132e-09
-1.08071e-09
-1.46784e-09
-1.2632e-09
-8.51355e-10
-9.03239e-10
-1.33708e-10
-9.67813e-10
-6.57512e-10
-1.55099e-09
-1.45938e-09
-1.52422e-09
-1.0131e-10
-9.05199e-11
-1.51161e-09
-1.26117e-09
-7.44808e-10
-1.34091e-09
-1.37988e-09
-1.37333e-09
-1.58696e-09
-1.46766e-09
-9.66664e-10
-9.95664e-10
-1.01969e-09
-1.59825e-09
-1.57312e-09
-1.4808e-09
-1.48157e-09
-1.41752e-09
-1.40486e-09
-8.59064e-10
-1.09025e-09
-8.45796e-10
-1.2748e-09
-1.33469e-09
-1.27014e-09
-1.50968e-09
-1.51601e-09
-1.50577e-09
-1.50478e-09
-1.51761e-09
-1.51337e-09
-3.83992e-10
-1.1319e-09
-1.18581e-09
-1.4271e-09
-1.42414e-09
-1.46193e-09
-4.67593e-10
-8.61608e-10
-1.12636e-09
-1.15258e-09
-2.5782e-10
-1.05133e-09
-7.09229e-10
-1.31031e-09
-8.69252e-10
-8.75805e-10
-8.09906e-10
-1.51426e-09
-1.52625e-09
-1.57016e-09
-1.51601e-09
-1.44354e-09
-1.00439e-09
-9.40524e-10
-1.36274e-09
-1.3771e-09
-8.56404e-10
-4.04212e-10
-4.41195e-10
-1.40575e-09
-1.05322e-09
-1.0492e-09
-4.24809e-10
-4.57581e-10
-1.52535e-09
-5.7161e-10
-5.92296e-10
-7.00219e-10
-1.5094e-09
-1.41957e-09
-1.53804e-10
-6.57062e-10
-1.38243e-09
-1.34716e-09
-8.41622e-10
-1.05295e-09
-1.27498e-09
-1.54692e-09
-3.50468e-10
-9.87543e-10
-1.23037e-09
-2.58041e-10
-1.4217e-09
-1.44389e-09
-1.24822e-09
-1.31439e-09
-1.56374e-09
-1.56433e-09
-1.43859e-09
-8.89783e-10
-7.93755e-10
-1.00426e-09
-1.35441e-09
-1.50885e-09
-9.17683e-10
-1.18957e-09
-1.47317e-09
-1.37209e-09
-3.18619e-10
-8.87574e-10
-1.16795e-09
-8.62955e-10
-3.98542e-10
-1.20309e-09
-7.09097e-10
-1.37699e-09
-1.25394e-09
-1.56058e-09
-1.19385e-09
-1.44843e-09
-1.51949e-09
-1.16326e-09
-1.27825e-09
-5.90664e-10
-5.5862e-10
-8.89379e-10
-1.18504e-09
-1.00978e-09
-1.92982e-10
-1.38199e-09
-1.30658e-09
-1.35592e-09
-2.43671e-10
-1.23152e-09
-1.43938e-09
-1.57317e-09