/*--------------------------------*- C++ -*----------------------------------*\
  =========                 |
  \\      /  F ield         | OpenFOAM: The Open Source CFD Toolbox
   \\    /   O peration     | Website:  https://openfoam.org
    \\  /    A nd           | Version:  7
     \\/     M anipulation  |
\*---------------------------------------------------------------------------*/
FoamFile
{
    version     2.0;
    format      ascii;
    class       volVectorField;
    location    "3";
    object      U;
}
// * * * * * * * * * * * * * * * * * * * * * * * * * * * * * * * * * * * * * //

dimensions      [0 1 -1 0 0 0 0];

internalField   nonuniform List<vector> 
13182
(
(0.5 8.76141e-14 1.11928e-29)
(0.5 -7.91125e-14 0)
(0.5 8.31986e-13 3.70755e-29)
(0.5 2.67412e-14 -8.82015e-29)
(0.5 -3.88726e-13 3.54311e-30)
(0.5 2.85111e-14 4.30528e-29)
(0.5 -6.74025e-14 8.31397e-29)
(0.5 -3.97402e-14 -9.67601e-29)
(0.5 3.09195e-14 -5.11415e-29)
(0.5 2.94553e-13 4.11635e-29)
(0.5 2.42685e-14 0)
(0.5 2.37084e-14 -3.60305e-31)
(0.5 1.15234e-13 -5.01562e-30)
(0.5 1.22063e-13 -9.54538e-29)
(0.5 -5.17585e-14 0)
(0.5 -3.73762e-14 4.25464e-29)
(0.5 4.78096e-14 -2.47336e-29)
(0.5 -4.11851e-13 0)
(0.5 -8.80036e-14 -8.27616e-29)
(0.5 -1.62508e-13 0)
(0.5 6.75904e-13 -3.70216e-29)
(0.5 -2.72102e-14 0)
(0.5 8.71334e-14 2.65337e-30)
(0.5 2.65108e-13 1.54179e-28)
(0.5 -2.10557e-13 8.96929e-30)
(0.5 -4.272e-13 0)
(0.5 -1.45868e-13 0)
(0.5 3.07303e-13 0)
(0.5 1.74109e-13 1.37462e-29)
(0.5 -4.56173e-13 -1.57857e-28)
(0.5 -4.77347e-13 0)
(0.5 3.15677e-14 9.29441e-29)
(0.5 -3.49687e-14 -2.05734e-29)
(0.5 -2.44755e-13 1.89649e-29)
(0.5 -8.86359e-13 -5.35431e-29)
(0.5 -5.53708e-13 0)
(0.5 -1.25102e-13 0)
(0.5 4.4193e-13 -6.01349e-29)
(0.5 2.97414e-13 0)
(0.5 1.88191e-13 -4.4994e-29)
(0.5 -4.8993e-13 -1.26154e-30)
(0.5 1.34414e-12 1.00885e-29)
(0.5 -5.08862e-14 3.80411e-29)
(0.5 7.97188e-14 -1.14e-29)
(0.5 -1.95531e-13 -5.26834e-30)
(0.5 -7.34944e-13 0)
(0.5 2.93451e-14 1.05625e-28)
(0.5 5.12343e-13 0)
(0.5 3.33169e-13 2.94099e-29)
(0.5 -3.45285e-14 0)
(0.5 3.94234e-13 0)
(0.5 5.95004e-13 0)
(0.5 1.73843e-13 2.188e-29)
(0.5 -6.40836e-15 3.63237e-29)
(0.5 1.95891e-13 0)
(0.5 -5.46169e-14 0)
(0.5 7.69595e-14 0)
(0.5 6.70094e-14 -3.69443e-29)
(0.5 2.05437e-13 -4.36432e-29)
(0.5 -4.48928e-13 0)
(0.5 -3.51048e-14 0)
(0.5 -3.16679e-14 9.95215e-29)
(0.5 8.77007e-14 -4.16843e-29)
(0.5 6.17453e-13 7.05166e-29)
(0.5 -4.29036e-13 8.19216e-29)
(0.5 -5.12352e-13 -1.48651e-28)
(0.5 2.81215e-13 -4.11282e-29)
(0.5 -2.8139e-13 1.92736e-29)
(0.5 1.39123e-13 -7.3057e-30)
(0.5 -1.62333e-13 -3.93678e-29)
(0.5 9.59153e-13 -1.8265e-30)
(0.5 -1.19588e-14 -2.49675e-29)
(0.5 -9.76505e-14 5.23392e-29)
(0.5 -8.65921e-13 0)
(0.5 -1.93255e-13 1.58579e-29)
(0.5 -1.78172e-13 1.00649e-28)
(0.5 -7.30709e-14 0)
(0.5 -2.74778e-14 2.77657e-29)
(0.5 8.84253e-14 1.03297e-28)
(0.5 2.50733e-13 -1.81049e-28)
(0.5 -2.08919e-13 -2.54668e-29)
(0.5 -4.40201e-13 4.23008e-29)
(0.5 -5.77349e-14 2.33367e-29)
(0.5 1.69033e-13 -2.12507e-29)
(0.5 3.32739e-13 -1.88573e-29)
(0.5 1.18352e-13 0)
(0.5 3.40225e-13 0)
(0.5 4.48446e-13 -4.06412e-29)
(0.5 -1.8091e-13 0)
(0.5 -1.89777e-13 -3.783e-29)
(0.5 4.25816e-13 0)
(0.5 -3.64797e-13 -5.44145e-29)
(0.5 -2.4579e-14 2.06115e-29)
(0.5 6.60793e-13 4.7094e-29)
(0.5 -2.19865e-13 -9.27882e-29)
(0.5 2.91809e-14 0)
(0.5 6.74952e-13 3.25825e-29)
(0.5 6.80313e-14 2.33756e-29)
(0.5 -9.98948e-14 0)
(0.5 -1.76263e-13 0)
(0.5 -1.60259e-13 -2.48972e-29)
(0.5 4.3293e-13 0)
(0.5 -5.9904e-14 0)
(0.5 -2.12197e-14 -8.3366e-29)
(0.5 -9.93398e-14 -4.77833e-29)
(0.5 -1.38626e-13 -3.63631e-29)
(0.5 8.3171e-14 -1.88748e-29)
(0.5 1.07771e-12 -1.68735e-29)
(0.5 -1.89153e-13 -1.26201e-28)
(0.5 -4.72013e-13 0)
(0.5 -1.18371e-13 1.1394e-28)
(0.5 -1.28178e-13 2.52869e-29)
(0.5 -7.48002e-14 -6.138e-29)
(0.5 1.19512e-14 -4.93385e-31)
(0.5 2.15064e-13 3.45224e-29)
(0.5 -1.78716e-14 -5.80475e-29)
(0.5 -4.39048e-14 6.29681e-29)
(0.5 1.46868e-12 1.11578e-29)
(0.5 5.35322e-13 5.99262e-29)
(0.5 4.73721e-13 3.01167e-31)
(0.5 2.04896e-13 0)
(0.5 -7.27934e-14 -3.7836e-29)
(0.5 -1.68585e-13 0)
(0.5 -4.25923e-15 -8.48837e-29)
(0.5 2.55762e-14 -3.48267e-29)
(0.5 1.27393e-13 0)
(0.5 8.88626e-14 -4.10208e-29)
(0.5 1.0122e-14 2.37199e-29)
(0.5 7.81689e-15 -9.42483e-29)
(0.5 5.87232e-13 0)
(0.5 4.55506e-13 9.39013e-30)
(0.5 2.71421e-13 0)
(0.5 6.40652e-14 0)
(0.5 2.27909e-13 -2.81168e-29)
(0.5 1.20127e-13 -1.28284e-28)
(0.5 2.47475e-14 8.84814e-29)
(0.5 1.77898e-14 6.85341e-30)
(0.5 -5.66211e-14 -2.0815e-29)
(0.5 2.03565e-14 0)
(0.5 -1.3812e-13 1.5911e-28)
(0.5 -6.36366e-13 6.69459e-29)
(0.5 -7.58991e-13 0)
(0.5 9.84669e-13 1.57789e-29)
(0.5 2.15562e-13 0)
(0.5 4.63917e-13 4.12567e-29)
(0.5 2.39494e-14 -3.44315e-31)
(0.5 -1.8358e-13 0)
(0.5 3.71195e-13 0)
(0.5 -3.24166e-13 -5.15572e-29)
(0.5 6.32846e-13 0)
(0.5 1.37597e-12 -9.65638e-30)
(0.5 -4.95351e-13 3.37883e-29)
(0.5 -3.62704e-13 0)
(0.5 -1.67262e-13 2.77774e-29)
(0.5 1.52109e-13 6.30207e-29)
(0.5 1.51086e-13 7.14278e-29)
(0.5 7.54424e-13 0)
(0.5 -9.13549e-13 9.87125e-32)
(0.5 -3.92546e-13 -1.04391e-29)
(0.5 -9.19694e-14 0)
(0.5 -1.62693e-14 -3.80241e-29)
(0.5 3.94977e-13 -5.8933e-29)
(0.5 4.78641e-13 2.8654e-29)
(0.5 -4.19353e-14 -9.59465e-29)
(0.5 4.89527e-14 -1.79092e-31)
(0.5 -6.6447e-14 2.36368e-31)
(0.5 -2.48421e-13 5.49534e-29)
(0.5 -7.13698e-13 -7.67592e-29)
(0.5 -2.92293e-13 1.70399e-29)
(0.5 3.46522e-13 0)
(0.5 1.01288e-13 0)
(0.5 2.79814e-13 -4.76197e-29)
(0.5 2.10026e-13 0)
(0.5 2.68476e-13 -3.88425e-30)
(0.5 -3.48421e-13 3.10274e-29)
(0.5 1.11793e-13 8.48339e-29)
(0.5 8.83571e-13 0)
(0.5 2.91181e-13 -2.8416e-29)
(0.5 8.92747e-14 0)
(0.5 -1.23447e-13 0)
(0.5 -2.38291e-13 -3.638e-29)
(0.5 4.82668e-13 -3.08414e-29)
(0.5 -3.05584e-13 0)
(0.5 -3.75696e-15 1.28525e-28)
(0.5 -1.76767e-14 -2.20632e-29)
(0.5 -4.0787e-13 -3.19518e-29)
(0.5 9.72341e-14 6.17358e-29)
(0.5 4.25242e-14 -9.36241e-29)
(0.5 -8.49895e-14 5.35447e-29)
(0.5 2.08248e-14 3.77811e-29)
(0.5 -1.34048e-13 -2.73727e-29)
(0.5 -3.28944e-13 3.45874e-32)
(0.5 2.48543e-14 -2.61525e-29)
(0.5 4.00247e-14 0)
(0.5 -3.20898e-13 1.0567e-28)
(0.5 3.64436e-13 3.22979e-29)
(0.5 3.273e-13 5.75044e-29)
(0.5 2.06616e-13 2.01552e-29)
(0.5 1.39582e-13 6.97303e-29)
(0.5 -1.86225e-13 1.96364e-29)
(0.5 2.64694e-13 -8.97584e-29)
(0.5 1.43215e-13 1.46163e-28)
(0.5 8.24714e-13 5.29963e-30)
(0.5 -7.57451e-14 0)
(0.5 -2.518e-13 -3.9818e-31)
(0.5 -9.19258e-14 1.51361e-29)
(0.5 -4.7869e-13 -2.02769e-29)
(0.5 1.11616e-12 0)
(0.5 -1.70618e-13 6.19005e-29)
(0.5 -3.2457e-13 -2.1973e-29)
(0.5 2.70641e-13 0)
(0.5 5.66667e-13 0)
(0.5 1.40137e-13 -8.90552e-29)
(0.5 3.24003e-14 1.07855e-28)
(0.5 -7.88425e-14 0)
(0.5 1.16258e-13 0)
(0.5 2.55878e-13 7.23841e-29)
(0.5 -1.99446e-13 -1.06383e-28)
(0.5 2.04785e-13 -7.3026e-29)
(0.5 3.84585e-13 -3.29199e-30)
(0.5 -4.66216e-13 0)
(0.5 -2.22824e-13 0)
(0.5 3.38783e-14 1.08893e-29)
(0.5 1.76675e-13 2.3441e-29)
(0.5 3.32136e-13 1.99561e-29)
(0.5 -1.08115e-13 -1.08168e-28)
(0.5 4.20386e-14 4.54691e-29)
(0.5 -5.51395e-13 0)
(0.5 -1.16723e-13 5.10596e-29)
(0.5 -1.33915e-14 -1.75018e-28)
(0.5 -7.59856e-14 4.91223e-29)
(0.5 -2.78797e-13 -4.77551e-29)
(0.5 -1.28772e-13 4.75633e-29)
(0.5 1.29019e-13 0)
(0.5 -1.18444e-13 -1.18329e-29)
(0.5 3.11783e-14 0)
(0.5 5.0153e-13 -2.43355e-31)
(0.5 4.70591e-14 9.21706e-29)
(0.5 1.59391e-14 0)
(0.5 -3.05499e-13 -3.62127e-31)
(0.5 1.56985e-13 2.40078e-29)
(0.5 6.20325e-13 -1.25866e-29)
(0.5 8.72716e-14 -4.73789e-29)
(0.5 1.2055e-14 3.96154e-29)
(0.5 8.9979e-14 -1.29189e-28)
(0.5 -2.27212e-13 4.42735e-29)
(0.5 4.3857e-13 7.47343e-29)
(0.5 1.02075e-13 -1.45075e-28)
(0.5 3.83675e-14 -5.40975e-30)
(0.5 -3.20118e-14 3.71381e-29)
(0.5 8.37283e-14 2.09286e-29)
(0.5 2.85249e-13 -4.3387e-29)
(0.5 2.06475e-13 1.01183e-28)
(0.5 5.14993e-14 -3.11422e-29)
(0.5 -7.55649e-13 -1.53619e-29)
(0.5 -1.38406e-13 -4.46861e-29)
(0.5 -8.24071e-14 -1.46002e-29)
(0.5 2.21397e-13 -7.85218e-30)
(0.5 4.31839e-13 -2.23993e-30)
(0.5 8.60577e-14 -1.50985e-29)
(0.5 -4.87638e-13 0)
(0.5 4.36632e-14 1.3838e-28)
(0.5 -1.01556e-13 4.86324e-29)
(0.5 -1.46671e-13 0)
(0.5 -3.41995e-13 -4.48538e-29)
(0.5 2.57866e-13 3.32796e-29)
(0.5 8.9274e-13 1.99921e-29)
(0.5 4.61213e-14 0)
(0.5 -1.23949e-13 -7.6315e-29)
(0.5 -5.60947e-14 -6.2056e-30)
(0.5 -2.31304e-14 -9.55688e-29)
(0.5 2.33852e-15 -1.02825e-28)
(0.5 1.04352e-13 9.10605e-29)
(0.5 8.20066e-14 0)
(0.5 -1.92229e-13 0)
(0.5 7.77918e-13 -5.63961e-29)
(0.5 6.39937e-14 9.60507e-29)
(0.5 1.32467e-14 -1.35766e-28)
(0.5 1.06698e-13 0)
(0.5 -2.17992e-14 0)
(0.5 -1.53716e-13 -1.04436e-28)
(0.5 3.62319e-13 2.91977e-29)
(0.5 -5.55021e-14 0)
(0.5 2.06135e-13 5.94483e-29)
(0.5 1.64105e-13 -1.10872e-29)
(0.5 -7.02815e-13 7.76654e-30)
(0.5 4.054e-13 5.50156e-29)
(0.5 -2.00427e-13 -9.95622e-29)
(0.5 -8.04873e-13 1.71567e-29)
(0.5 -2.06936e-14 -5.42148e-29)
(0.5 1.61036e-13 2.67519e-29)
(0.5 -1.53167e-13 -2.36507e-29)
(0.5 1.04577e-13 1.34018e-29)
(0.5 -3.64679e-13 -2.08127e-29)
(0.5 -1.39869e-13 2.45821e-29)
(0.5 -4.31591e-14 3.69973e-29)
(0.5 -1.91591e-13 0)
(0.5 -2.17228e-13 0)
(0.5 -1.62191e-14 -7.97242e-29)
(0.5 -3.16626e-14 -2.69606e-29)
(0.5 -1.18354e-13 3.70902e-29)
(0.5 5.48752e-13 1.08187e-28)
(0.5 2.00934e-13 4.53915e-29)
(0.5 2.05159e-13 2.39232e-29)
(0.5 1.03354e-12 0)
(0.5 3.58005e-13 -3.05505e-29)
(0.5 -1.85759e-15 7.9627e-29)
(0.5 -1.26194e-13 4.23884e-29)
(0.5 4.57116e-14 1.05106e-28)
(0.5 2.40727e-13 -2.83352e-32)
(0.5 1.56863e-13 0)
(0.5 -1.21532e-13 -4.74209e-29)
(0.5 8.17892e-14 -2.82068e-29)
(0.5 -1.35377e-13 9.99898e-29)
(0.5 -4.05599e-13 0)
(0.5 -6.26432e-14 -1.13819e-28)
(0.5 -4.51335e-14 9.63544e-29)
(0.5 -1.1184e-13 0)
(0.5 -2.85259e-13 1.8688e-28)
(0.5 -3.66477e-13 2.50408e-29)
(0.5 -4.01441e-13 -3.90867e-29)
(0.5 8.24042e-14 1.54956e-29)
(0.5 -1.22301e-13 9.30624e-29)
(0.5 2.42107e-14 -4.58474e-29)
(0.5 -5.03919e-14 7.53434e-29)
(0.5 -4.30115e-14 -9.75048e-29)
(0.5 -4.12125e-13 3.28481e-31)
(0.5 -1.46829e-13 0)
(0.5 7.65657e-13 0)
(0.5 -1.64337e-13 -3.14313e-29)
(0.5 -2.73814e-13 0)
(0.5 -2.86845e-13 0)
(0.5 1.42161e-13 0)
(0.5 4.53341e-14 -5.15502e-29)
(0.5 2.86148e-13 0)
(0.5 1.91907e-13 5.13265e-30)
(0.5 -3.91646e-13 -7.86993e-29)
(0.5 -3.06662e-14 -4.2547e-29)
(0.5 -1.2533e-13 0)
(0.5 2.93866e-13 2.61323e-29)
(0.5 8.63828e-13 7.11955e-30)
(0.5 1.46503e-13 0)
(0.5 1.83979e-14 -1.34182e-29)
(0.5 -6.13743e-13 0)
(0.5 4.29369e-13 4.02402e-29)
(0.5 -8.40487e-15 0)
(0.5 2.29084e-14 8.00398e-29)
(0.5 9.20717e-14 0)
(0.5 2.54117e-13 -8.90554e-29)
(0.5 -7.83574e-14 -8.52327e-29)
(0.5 -1.57231e-13 8.01536e-29)
(0.5 -2.39101e-13 -1.46545e-28)
(0.5 5.00864e-13 1.38287e-29)
(0.5 1.33276e-14 8.81248e-29)
(0.5 -1.02378e-13 -1.26488e-28)
(0.5 -1.83893e-14 -4.2241e-29)
(0.5 1.85517e-13 -7.17358e-29)
(0.5 2.54127e-13 -7.47198e-29)
(0.5 -1.47001e-13 -2.48443e-29)
(0.5 6.09046e-14 9.19929e-29)
(0.5 -1.59e-14 1.16341e-29)
(0.5 -3.0389e-13 0)
(0.5 4.02669e-13 -1.49199e-29)
(0.5 -2.05919e-14 2.60518e-29)
(0.5 -8.08886e-13 -4.34702e-29)
(0.5 1.42768e-13 0)
(0.5 -7.38552e-14 6.58504e-29)
(0.5 -1.09199e-13 1.00226e-28)
(0.5 -4.08847e-15 -5.7747e-32)
(0.5 -2.05153e-13 0)
(0.5 -1.52528e-13 -4.85047e-29)
(0.5 -1.19533e-13 4.85525e-29)
(0.5 2.66466e-13 -1.29787e-29)
(0.5 -1.5192e-13 -1.6319e-29)
(0.5 1.54301e-13 -1.12861e-28)
(0.5 -3.84339e-14 3.67348e-29)
(0.5 -1.73216e-13 -7.11733e-29)
(0.5 4.95657e-15 -1.91579e-29)
(0.5 6.24759e-14 -1.79047e-30)
(0.5 -6.62999e-13 1.07814e-29)
(0.5 6.51618e-13 -8.41312e-29)
(0.5 -5.0139e-13 -5.15252e-29)
(0.5 -3.32611e-13 -9.5121e-29)
(0.5 -6.57633e-14 -4.55671e-29)
(0.5 -2.20913e-13 -2.80394e-29)
(0.5 4.57162e-13 -1.13985e-30)
(0.5 1.1973e-14 -6.0884e-29)
(0.5 6.6595e-14 -2.48292e-29)
(0.5 -5.91386e-13 1.83994e-30)
(0.5 -1.68067e-13 7.30284e-31)
(0.5 -3.27807e-13 0)
(0.5 -3.5665e-14 -6.67323e-30)
(0.5 7.73059e-16 1.01821e-28)
(0.5 -3.72955e-13 -3.99707e-29)
(0.5 2.91071e-14 -3.51297e-29)
(0.5 1.08939e-13 0)
(0.5 -1.48001e-13 0)
(0.5 1.20876e-13 2.34746e-29)
(0.5 7.46717e-13 -8.49563e-29)
(0.5 -6.20639e-14 2.66538e-29)
(0.5 6.12788e-13 0)
(0.5 5.58671e-13 2.50074e-29)
(0.5 -5.65823e-15 -2.0099e-29)
(0.5 -2.27804e-13 2.01874e-29)
(0.5 -9.96566e-14 6.8581e-29)
(0.5 3.09651e-13 -5.69888e-29)
(0.5 1.97107e-13 4.23421e-29)
(0.5 1.39862e-14 -1.00793e-28)
(0.5 -8.16441e-14 0)
(0.5 2.01233e-13 7.05056e-29)
(0.5 -6.25397e-13 8.36207e-29)
(0.5 -4.7449e-13 0)
(0.5 -4.74287e-13 -6.29112e-30)
(0.5 -2.25674e-13 1.85681e-29)
(0.5 -5.98508e-14 0)
(0.5 3.82822e-13 -1.59152e-29)
(0.5 -2.84443e-14 0)
(0.5 -8.9448e-13 1.54894e-30)
(0.5 1.5718e-13 0)
(0.5 3.30425e-13 0)
(0.5 -2.45902e-13 0)
(0.5 -1.63604e-13 1.87936e-28)
(0.5 -4.34397e-13 -1.23416e-29)
(0.5 -4.98642e-13 0)
(0.5 -3.53867e-14 0)
(0.5 -5.47262e-13 -3.90904e-29)
(0.5 1.33536e-13 -4.78569e-29)
(0.5 1.83444e-14 -3.72307e-29)
(0.5 -1.09991e-13 0)
(0.5 -1.41926e-13 4.53083e-29)
(0.5 -4.36517e-14 5.50874e-30)
(0.5 -3.07987e-13 -7.95387e-29)
(0.5 -2.36181e-13 -1.04405e-29)
(0.5 2.12761e-14 -9.69413e-29)
(0.5 -4.46218e-14 -5.13107e-29)
(0.5 6.5348e-13 0)
(0.5 -2.05182e-14 -4.23449e-29)
(0.5 -4.39355e-14 -1.58804e-29)
(0.5 6.593e-13 -4.00718e-29)
(0.5 -3.95126e-13 0)
(0.5 4.37576e-13 2.03579e-29)
(0.5 -3.28299e-13 6.51821e-29)
(0.5 2.09168e-13 0)
(0.5 -1.33075e-13 4.52355e-29)
(0.5 3.26892e-13 -1.13888e-28)
(0.5 -5.08815e-14 0)
(0.5 7.20735e-13 0)
(0.5 -6.67021e-15 0)
(0.5 -4.25965e-13 0)
(0.5 -1.14526e-13 -5.06733e-29)
(0.5 2.66517e-14 9.19149e-29)
(0.5 -3.30293e-13 -9.44261e-29)
(0.5 2.68496e-13 -2.96052e-29)
(0.5 -1.8332e-14 -2.56138e-29)
(0.5 9.11116e-13 -1.4231e-29)
(0.5 2.82167e-13 -7.93799e-29)
(0.5 -8.25222e-14 0)
(0.5 -3.16558e-13 0)
(0.5 -1.53128e-13 0)
(0.5 1.03341e-13 -1.25377e-28)
(0.5 9.14805e-16 4.75741e-29)
(0.5 4.25012e-14 -1.10883e-29)
(0.5 1.00611e-12 -9.3045e-31)
(0.5 -1.2005e-14 -7.76044e-29)
(0.5 1.25142e-13 0)
(0.5 -5.63701e-15 -1.1165e-28)
(0.5 -2.19239e-13 3.39849e-29)
(0.5 2.75365e-13 1.75419e-29)
(0.5 -1.77566e-14 -8.44613e-32)
(0.5 2.28208e-14 0)
(0.5 1.5264e-13 7.54152e-29)
(0.5 1.74712e-12 0)
(0.5 1.51955e-14 1.00473e-28)
(0.5 5.91687e-14 0)
(0.5 3.44508e-14 1.94767e-29)
(0.5 -7.23041e-13 -3.19576e-29)
(0.5 -3.75403e-13 2.67504e-29)
(0.5 7.46081e-13 6.50897e-30)
(0.5 -4.10724e-13 -2.64599e-29)
(0.5 -1.26994e-13 9.92741e-29)
(0.5 4.4851e-15 0)
(0.5 -1.06329e-13 9.29189e-29)
(0.5 2.2686e-13 0)
(0.5 -7.55237e-15 0)
(0.5 1.49097e-13 8.20649e-30)
(0.5 -1.18672e-12 2.52506e-29)
(0.5 2.02221e-13 1.14736e-28)
(0.5 1.72304e-13 -7.45411e-29)
(0.5 3.27514e-13 0)
(0.5 1.87179e-12 -8.53745e-30)
(0.5 3.51599e-14 0)
(0.5 2.44365e-13 -3.79362e-29)
(0.5 -5.58379e-14 4.75791e-29)
(0.5 -2.33832e-13 -3.88554e-29)
(0.5 -1.6644e-13 0)
(0.5 -5.4106e-13 -2.81128e-29)
(0.5 3.84087e-13 6.03937e-29)
(0.5 7.4939e-13 1.87577e-30)
(0.5 -2.00212e-13 0)
(0.5 1.49653e-13 6.3854e-29)
(0.5 -3.98162e-14 0)
(0.5 2.13907e-14 -5.16211e-29)
(0.5 -8.13429e-14 -2.51143e-29)
(0.5 4.73573e-14 0)
(0.5 -3.61029e-13 2.79607e-29)
(0.5 -9.59403e-14 1.11627e-29)
(0.5 9.77263e-14 0)
(0.5 -1.29255e-13 0)
(0.5 3.06498e-13 9.83722e-29)
(0.5 -3.82822e-13 -3.20447e-29)
(0.5 5.54345e-14 -3.16271e-29)
(0.5 2.43732e-13 0)
(0.5 -2.41551e-14 0)
(0.5 7.4768e-13 -8.36495e-29)
(0.5 -1.80129e-13 -7.80138e-29)
(0.5 -3.69872e-14 4.6969e-31)
(0.5 1.52901e-13 -5.26721e-29)
(0.5 1.7421e-14 0)
(0.5 -2.5215e-13 4.56774e-29)
(0.5 1.62694e-12 2.84057e-29)
(0.5 -2.32543e-14 9.09342e-29)
(0.5 -2.91894e-15 0)
(0.5 -1.73672e-13 2.3121e-29)
(0.5 -7.05943e-13 -1.50859e-29)
(0.5 3.46176e-13 3.18883e-29)
(0.5 -8.33359e-14 0)
(0.5 -4.34709e-14 -4.3388e-29)
(0.5 3.26143e-13 0)
(0.5 -1.92403e-13 0)
(0.5 -3.20398e-13 3.72776e-29)
(0.5 -1.2039e-13 -3.62248e-29)
(0.5 1.73725e-13 7.48532e-29)
(0.5 1.51616e-13 -5.0049e-29)
(0.5 1.6772e-13 -4.34353e-29)
(0.5 7.29713e-13 4.55906e-30)
(0.5 -2.62456e-14 4.36572e-29)
(0.5 -2.11933e-13 -4.55785e-29)
(0.5 9.20585e-13 4.63021e-29)
(0.5 -1.38228e-13 0)
(0.5 -1.99382e-13 0)
(0.5 1.14571e-14 0)
(0.5 5.37347e-14 4.71206e-29)
(0.5 -1.44254e-13 5.47931e-29)
(0.5 1.53847e-13 1.59837e-29)
(0.5 4.87425e-14 9.74491e-29)
(0.5 1.22248e-13 1.78213e-29)
(0.5 -3.17022e-13 -3.71193e-29)
(0.5 1.81344e-14 8.814e-29)
(0.5 -5.31917e-13 -5.74891e-29)
(0.5 -3.95846e-13 9.3925e-29)
(0.5 -2.37677e-13 2.48662e-29)
(0.5 -1.8141e-13 -4.70305e-29)
(0.5 -7.61832e-14 0)
(0.5 -8.53744e-14 7.20057e-29)
(0.5 -1.98888e-13 2.58673e-29)
(0.5 -1.63059e-14 1.60367e-30)
(0.5 -1.74853e-14 -2.53339e-29)
(0.5 2.15161e-13 -2.2833e-29)
(0.5 6.03721e-14 1.1755e-28)
(0.5 -7.68739e-14 -1.23076e-28)
(0.5 -1.87545e-13 4.83211e-29)
(0.5 -4.3024e-13 0)
(0.5 -1.09551e-13 1.17183e-28)
(0.5 -1.77167e-13 4.01886e-29)
(0.5 5.63625e-15 -9.32009e-29)
(0.5 1.83805e-13 -9.10438e-29)
(0.5 -2.55114e-13 3.74552e-29)
(0.5 9.87095e-13 -1.23449e-29)
(0.5 9.37896e-13 -4.54141e-29)
(0.5 2.86664e-14 0)
(0.5 2.75856e-13 1.03295e-29)
(0.5 -7.70939e-13 -5.24447e-29)
(0.5 -3.10596e-13 5.93915e-29)
(0.5 -2.26298e-13 4.17273e-29)
(0.5 -5.35787e-14 -9.01725e-29)
(0.5 2.41878e-14 9.92855e-29)
(0.5 2.33222e-13 0)
(0.5 6.95329e-14 -4.52829e-29)
(0.5 1.28507e-13 5.448e-29)
(0.5 6.05008e-13 -3.31303e-29)
(0.5 1.87936e-13 -8.36591e-29)
(0.5 8.97037e-13 0)
(0.5 -8.33451e-14 -1.39993e-28)
(0.5 2.18784e-13 2.31924e-31)
(0.5 3.21292e-13 4.68407e-29)
(0.5 -3.00368e-13 2.28201e-29)
(0.5 6.35507e-14 0)
(0.5 -6.83673e-14 -9.05461e-29)
(0.5 -1.99013e-13 9.7939e-29)
(0.5 -3.50015e-13 6.23929e-29)
(0.5 -3.84129e-13 6.14721e-29)
(0.5 -1.53445e-14 0)
(0.5 1.901e-13 -8.33496e-29)
(0.5 -2.42747e-13 8.17523e-29)
(0.5 -1.67508e-13 1.26316e-28)
(0.5 5.38458e-13 5.41389e-29)
(0.5 6.64245e-14 3.65498e-29)
(0.5 -4.09997e-14 0)
(0.5 -9.96431e-14 -6.82133e-29)
(0.5 4.0232e-14 -1.17461e-28)
(0.5 1.08954e-14 -1.00582e-28)
(0.5 1.72003e-14 0)
(0.5 -1.01053e-13 0)
(0.5 2.52653e-14 7.2623e-29)
(0.5 8.22844e-13 -1.07789e-29)
(0.5 1.14644e-13 -2.37708e-31)
(0.5 3.04542e-13 1.13925e-29)
(0.5 1.92303e-13 1.03833e-28)
(0.5 -3.49326e-13 4.96625e-29)
(0.5 -1.26222e-13 0)
(0.5 -6.53068e-14 1.07759e-28)
(0.5 3.14714e-14 2.25092e-29)
(0.5 -1.06417e-13 -4.33251e-29)
(0.5 -2.37298e-13 4.44677e-29)
(0.5 -4.01968e-13 -3.2922e-29)
(0.5 1.20279e-12 -5.58841e-30)
(0.5 8.83728e-13 5.6525e-29)
(0.5 -9.39295e-14 -3.99728e-29)
(0.5 -2.14296e-13 -1.73319e-29)
(0.5 2.40629e-13 -2.11961e-29)
(0.5 2.43648e-14 9.76457e-29)
(0.5 8.58875e-13 0)
(0.5 2.13573e-13 0)
(0.5 -7.37871e-14 5.20126e-29)
(0.5 1.37266e-12 -4.2361e-29)
(0.5 9.55336e-13 6.41561e-29)
(0.5 -1.89062e-13 9.74438e-29)
(0.5 -1.20455e-13 1.02099e-28)
(0.5 -4.08503e-13 0)
(0.5 2.20993e-13 5.6686e-30)
(0.5 -2.1825e-13 -2.65507e-29)
(0.5 -2.02035e-13 0)
(0.5 2.22838e-13 0)
(0.5 4.33245e-13 -9.76175e-30)
(0.5 1.61835e-13 0)
(0.5 7.60284e-13 -5.54207e-29)
(0.5 5.10491e-15 2.77096e-29)
(0.5 -3.41608e-14 1.1306e-29)
(0.5 -1.37027e-14 -4.02239e-29)
(0.5 -2.34488e-14 3.16673e-31)
(0.5 3.19811e-14 -5.0094e-29)
(0.5 -1.17469e-12 0)
(0.5 -3.50746e-13 8.33372e-29)
(0.5 2.41668e-13 -9.05767e-29)
(0.5 4.61544e-15 8.61805e-32)
(0.5 -1.15412e-13 7.21661e-30)
(0.5 1.91932e-14 0)
(0.5 -7.00141e-15 2.58982e-29)
(0.5 6.03479e-13 3.04973e-29)
(0.5 -1.47998e-13 -8.99978e-30)
(0.5 -8.60855e-14 5.31781e-29)
(0.5 -6.6074e-14 -1.5054e-28)
(0.5 3.88226e-14 -2.78231e-29)
(0.5 -2.48575e-13 2.3873e-29)
(0.5 -4.96866e-14 0)
(0.5 -1.68259e-13 3.72138e-29)
(0.5 -9.54549e-14 -5.31641e-29)
(0.5 8.30259e-15 -3.31853e-29)
(0.5 3.39154e-13 2.17453e-30)
(0.5 -2.9737e-13 1.35366e-29)
(0.5 -4.43177e-13 1.4635e-28)
(0.5 -1.89891e-15 0)
(0.5 6.43312e-13 2.12899e-29)
(0.5 7.69105e-14 -4.25093e-29)
(0.5 -6.67236e-14 -8.87152e-29)
(0.5 1.97244e-13 -8.46294e-29)
(0.5 -9.7459e-14 -9.27175e-29)
(0.5 -1.34742e-13 4.63197e-29)
(0.5 2.58327e-14 0)
(0.5 -6.8631e-15 3.91338e-29)
(0.5 -1.99546e-14 0)
(0.5 2.64944e-13 0)
(0.5 1.13617e-14 0)
(0.5 2.83254e-14 7.70436e-29)
(0.5 1.50743e-13 -5.57738e-30)
(0.5 6.11993e-13 -1.63888e-29)
(0.5 -1.93756e-13 2.0969e-29)
(0.5 1.45173e-13 2.54184e-29)
(0.5 -9.5519e-13 -3.96755e-29)
(0.5 3.79125e-15 -9.89368e-29)
(0.5 2.72845e-13 -5.73947e-29)
(0.5 5.11124e-14 -5.29866e-29)
(0.5 2.60267e-14 0)
(0.5 -3.69727e-13 -4.96305e-29)
(0.5 -4.46718e-14 -1.0905e-28)
(0.5 1.20589e-15 0)
(0.5 -3.29781e-14 0)
(0.5 9.61466e-14 0)
(0.5 4.46746e-13 -1.18919e-29)
(0.5 8.75215e-15 1.00801e-28)
(0.5 9.46806e-14 -9.36242e-29)
(0.5 4.71512e-14 1.30708e-28)
(0.5 1.99172e-13 0)
(0.5 3.49224e-14 5.55805e-29)
(0.5 -9.54062e-14 1.01434e-28)
(0.5 -1.05572e-13 -8.38394e-29)
(0.5 -2.73031e-13 0)
(0.5 5.40909e-14 0)
(0.5 -6.79928e-15 -4.27869e-29)
(0.5 5.87598e-13 -2.67351e-29)
(0.5 -6.28215e-14 1.19745e-29)
(0.5 -1.11296e-13 0)
(0.5 1.15506e-13 -1.50869e-28)
(0.5 -7.56559e-14 -1.01477e-28)
(0.5 6.15038e-13 1.28746e-29)
(0.5 3.89153e-14 0)
(0.5 -1.03707e-13 0)
(0.5 -3.41391e-14 4.63794e-29)
(0.5 2.61135e-13 1.59882e-29)
(0.5 2.48857e-13 0)
(0.5 -6.27405e-14 5.13783e-29)
(0.5 6.95822e-14 -2.28965e-29)
(0.5 -1.78269e-14 0)
(0.5 -1.38997e-14 -4.90758e-29)
(0.5 -4.62353e-13 4.29128e-29)
(0.5 3.97359e-13 -5.59815e-29)
(0.5 5.41701e-14 0)
(0.5 4.04996e-14 -1.08632e-28)
(0.5 6.29345e-14 0)
(0.5 -2.91808e-14 2.71686e-30)
(0.5 -3.81895e-14 0)
(0.5 7.34995e-13 3.85275e-30)
(0.5 -3.50901e-15 9.3242e-29)
(0.5 2.85264e-13 -8.17029e-29)
(0.5 -2.34126e-13 0)
(0.5 -2.09098e-13 1.91157e-29)
(0.5 1.21399e-12 0)
(0.5 6.14865e-13 3.58594e-29)
(0.5 -2.81969e-13 -5.08666e-29)
(0.5 -1.96644e-13 1.07435e-28)
(0.5 -1.73695e-13 8.83509e-29)
(0.5 -3.23616e-13 4.2721e-29)
(0.5 2.19085e-13 -3.99376e-29)
(0.5 1.65132e-13 7.17277e-29)
(0.5 -3.95654e-13 2.08122e-29)
(0.5 1.02963e-13 5.81441e-29)
(0.5 4.45079e-14 -1.02564e-28)
(0.5 -5.05059e-15 0)
(0.5 -1.12116e-13 9.04857e-29)
(0.5 -2.56904e-13 1.13921e-28)
(0.5 -6.04706e-15 -3.84254e-29)
(0.5 -2.01657e-14 4.95023e-29)
(0.5 -2.56975e-14 3.77985e-29)
(0.5 -3.83017e-13 0)
(0.5 -8.25001e-14 0)
(0.5 -3.01848e-13 7.08977e-29)
(0.5 -3.36347e-13 -4.04546e-29)
(0.5 -1.87965e-13 4.24738e-29)
(0.5 8.01837e-14 -2.14957e-29)
(0.5 4.99198e-14 -8.77429e-29)
(0.5 4.68896e-14 8.86667e-29)
(0.5 -4.23726e-13 0)
(0.5 -7.2698e-14 0)
(0.5 1.44338e-14 -2.79294e-30)
(0.5 -1.71618e-13 -6.77335e-31)
(0.5 -1.184e-13 -3.25153e-30)
(0.5 5.46002e-13 0)
(0.5 1.10507e-13 -7.31846e-32)
(0.5 2.37326e-14 0)
(0.5 1.02015e-13 -1.74688e-29)
(0.5 -4.00431e-14 1.04284e-28)
(0.5 2.02768e-14 -3.88054e-29)
(0.5 -1.51868e-13 5.43833e-29)
(0.5 1.88392e-14 0)
(0.5 -1.36611e-13 -1.25571e-29)
(0.5 -3.44171e-16 -2.67516e-29)
(0.5 -2.61652e-13 7.71804e-29)
(0.5 6.05156e-14 -2.22881e-29)
(0.5 2.20489e-14 2.56244e-29)
(0.5 -5.18082e-14 8.43017e-29)
(0.5 -3.28274e-13 -8.4511e-30)
(0.5 -8.69899e-14 2.06139e-29)
(0.5 9.55896e-15 -2.29113e-29)
(0.5 9.80312e-14 2.0513e-29)
(0.5 1.06226e-15 2.54108e-29)
(0.5 -2.56441e-15 8.91889e-29)
(0.5 -3.03488e-13 -4.68117e-29)
(0.5 -2.18537e-14 -7.50647e-29)
(0.5 3.72843e-14 1.09371e-28)
(0.5 -1.19634e-14 -1.3939e-28)
(0.5 5.11954e-14 1.89685e-29)
(0.5 4.33192e-13 3.16437e-29)
(0.5 -2.69312e-13 9.36915e-29)
(0.5 -3.32018e-13 8.62702e-29)
(0.5 1.2063e-13 3.3348e-31)
(0.5 1.13122e-12 0)
(0.5 -4.2762e-15 1.02728e-28)
(0.5 3.1602e-13 -4.99454e-29)
(0.5 1.04507e-13 2.11222e-29)
(0.5 -9.48003e-14 -3.19475e-29)
(0.5 3.59778e-13 8.88892e-29)
(0.5 4.27677e-13 2.3553e-29)
(0.5 -6.10481e-14 -1.03993e-28)
(0.5 -1.70628e-13 0)
(0.5 -8.97073e-15 3.01395e-29)
(0.5 6.05559e-13 -2.30943e-29)
(0.5 7.05078e-14 0)
(0.5 2.61008e-13 -1.54539e-28)
(0.5 -8.15137e-15 4.49056e-29)
(0.5 -1.92058e-16 -2.4253e-29)
(0.5 4.96994e-13 2.9678e-29)
(0.5 -3.193e-14 3.80154e-29)
(0.5 -5.72496e-13 0)
(0.5 -1.59988e-14 1.015e-28)
(0.5 5.45914e-13 3.86851e-30)
(0.5 -1.28354e-13 -1.06204e-28)
(0.5 -1.52447e-13 -7.78559e-29)
(0.5 -1.56021e-14 -1.26699e-29)
(0.5 1.28288e-13 4.63613e-29)
(0.5 -3.81312e-13 2.05337e-29)
(0.5 -9.10757e-14 0)
(0.5 2.5708e-14 0)
(0.5 1.96984e-14 -5.77908e-31)
(0.5 -3.96432e-13 -5.4087e-29)
(0.5 7.87563e-13 2.8469e-29)
(0.5 -3.48648e-13 7.14461e-29)
(0.5 -3.50282e-13 0)
(0.5 2.43257e-13 1.50212e-30)
(0.5 1.07761e-13 -8.4131e-29)
(0.5 6.07218e-14 3.93313e-29)
(0.5 -1.97031e-13 0)
(0.5 -1.00636e-13 0)
(0.5 -2.32251e-13 -6.81948e-29)
(0.5 4.62464e-14 -2.05764e-29)
(0.5 2.79073e-14 2.08167e-29)
(0.5 1.3216e-14 -2.45288e-29)
(0.5 1.79155e-13 -2.43357e-29)
(0.5 6.43691e-13 0)
(0.5 1.984e-13 0)
(0.5 -3.35976e-13 6.26206e-29)
(0.5 -1.53646e-14 1.93502e-28)
(0.5 -4.4104e-14 -8.36836e-29)
(0.5 1.5505e-13 -4.98709e-29)
(0.5 1.25879e-13 -1.15035e-29)
(0.5 -7.06897e-14 4.65865e-29)
(0.5 -5.74336e-13 -8.53288e-29)
(0.5 6.91921e-13 -1.70757e-29)
(0.5 4.13117e-13 1.74884e-29)
(0.5 1.23186e-13 5.72747e-29)
(0.5 4.15055e-13 0)
(0.5 -7.35949e-14 2.13305e-28)
(0.5 5.27805e-13 2.73255e-29)
(0.5 -1.30473e-13 -8.22699e-29)
(0.5 3.02899e-14 0)
(0.5 7.81769e-14 2.20974e-29)
(0.5 9.35431e-14 0)
(0.5 5.12616e-13 4.65123e-29)
(0.5 -6.00823e-13 2.34013e-29)
(0.5 -5.28053e-14 4.55355e-29)
(0.5 2.0388e-14 0)
(0.5 -2.42129e-14 0)
(0.5 2.21312e-13 0)
(0.5 2.63334e-13 5.57358e-29)
(0.5 -3.35481e-13 9.87048e-29)
(0.5 -1.18996e-13 -5.91842e-29)
(0.5 7.3921e-13 -6.47037e-29)
(0.5 8.16346e-13 0)
(0.5 -2.47295e-13 2.77621e-29)
(0.5 -3.82327e-14 -4.9641e-29)
(0.5 2.00409e-13 0)
(0.5 -7.28559e-14 0)
(0.5 1.07275e-13 1.5047e-29)
(0.5 -2.71194e-13 5.17452e-29)
(0.5 -7.78781e-13 0)
(0.5 7.292e-13 -3.70868e-29)
(0.5 4.22726e-14 -4.74861e-29)
(0.5 5.34367e-13 1.9328e-30)
(0.5 2.00246e-13 -4.52284e-29)
(0.5 3.9625e-14 -4.43351e-29)
(0.5 -1.47261e-14 2.89208e-29)
(0.5 -2.74966e-13 -6.00086e-30)
(0.5 -2.80105e-13 -5.21157e-29)
(0.5 -3.2021e-13 -3.80584e-29)
(0.5 -1.02715e-13 0)
(0.5 -3.2861e-13 -9.32407e-30)
(0.5 -3.27466e-14 0)
(0.5 7.21899e-16 5.60912e-29)
(0.5 -2.57118e-13 0)
(0.5 -1.12311e-13 -4.71476e-29)
(0.5 -8.91644e-14 -1.76334e-29)
(0.5 1.49211e-13 1.0722e-28)
(0.5 -5.18694e-15 9.94068e-29)
(0.5 3.56393e-13 1.39089e-29)
(0.5 1.04905e-13 -3.50201e-29)
(0.5 -2.89588e-13 0)
(0.5 -4.26071e-14 -2.61775e-29)
(0.5 -1.37552e-13 1.57257e-30)
(0.5 -1.65712e-15 0)
(0.5 -4.90492e-14 1.23548e-28)
(0.5 -2.15789e-13 -1.31762e-28)
(0.5 3.33614e-13 -1.44236e-30)
(0.5 -3.78809e-13 -4.74091e-30)
(0.5 3.162e-14 1.21465e-29)
(0.5 -1.69362e-13 0)
(0.5 3.46468e-14 0)
(0.5 2.97699e-14 9.71312e-29)
(0.5 1.46778e-13 6.05333e-29)
(0.5 6.6469e-16 0)
(0.5 1.82277e-12 0)
(0.5 -7.63223e-14 -4.75505e-29)
(0.5 3.3586e-14 0)
(0.5 -1.58961e-13 0)
(0.5 6.93062e-13 -3.98442e-29)
(0.5 -3.63397e-13 8.98185e-29)
(0.5 2.54227e-14 0)
(0.5 3.17167e-13 0)
(0.5 -4.68223e-13 -3.22144e-29)
(0.5 4.95082e-13 -1.94141e-31)
(0.5 3.86901e-14 -9.60408e-29)
(0.5 3.81363e-13 1.25282e-29)
(0.5 -7.65093e-14 -1.85984e-29)
(0.5 1.05116e-12 -2.38342e-29)
(0.5 -8.16912e-14 6.17829e-31)
(0.5 -4.06497e-13 -3.54307e-29)
(0.5 -3.74688e-14 9.02759e-29)
(0.5 2.80913e-13 -2.28254e-30)
(0.5 3.88036e-13 -1.55091e-29)
(0.5 -1.05682e-13 0)
(0.5 2.23358e-13 -2.29515e-29)
(0.5 5.16145e-15 -2.38789e-29)
(0.5 8.91401e-14 1.22591e-28)
(0.5 9.38291e-13 -7.58425e-30)
(0.5 2.35671e-13 0)
(0.5 -3.17454e-13 0)
(0.5 6.27984e-13 -1.36507e-31)
(0.5 4.11604e-14 -1.70848e-30)
(0.5 -1.06566e-13 6.62691e-29)
(0.5 1.21874e-14 3.27434e-29)
(0.5 1.44947e-13 4.4256e-29)
(0.5 5.97333e-14 1.18497e-29)
(0.5 -6.77629e-14 -1.1272e-31)
(0.5 5.21974e-14 0)
(0.5 1.01415e-13 2.36292e-29)
(0.5 2.62447e-13 0)
(0.5 2.63982e-13 4.90947e-29)
(0.5 -1.34441e-14 9.39601e-29)
(0.5 4.81211e-14 9.95543e-29)
(0.5 -4.61347e-13 3.80608e-29)
(0.5 -7.45759e-13 -6.87829e-29)
(0.5 2.80428e-13 -8.79689e-29)
(0.5 -2.76281e-13 2.10693e-29)
(0.5 -1.98132e-13 -4.27553e-29)
(0.5 1.90454e-13 -7.62764e-29)
(0.5 1.13001e-13 -7.27964e-29)
(0.5 1.22872e-13 0)
(0.5 8.35682e-13 -6.58748e-29)
(0.5 5.29893e-14 0)
(0.5 3.20657e-13 0)
(0.5 5.17163e-13 0)
(0.5 -4.14808e-13 -2.89998e-29)
(0.5 1.21447e-14 -1.65445e-29)
(0.5 -9.69e-14 -2.95155e-30)
(0.5 3.97383e-13 0)
(0.5 -1.50849e-13 7.78378e-29)
(0.5 -6.92666e-14 -8.73121e-29)
(0.5 -2.14722e-13 0)
(0.5 2.8939e-13 -2.16e-29)
(0.5 4.92844e-13 -2.66201e-29)
(0.5 2.17472e-13 -6.42883e-29)
(0.5 -3.67235e-14 -5.22331e-29)
(0.5 3.53173e-13 4.10166e-29)
(0.5 -1.0731e-14 7.74713e-29)
(0.5 -1.82519e-14 2.8314e-29)
(0.5 3.58137e-13 -5.53424e-29)
(0.5 -1.3835e-13 4.0626e-29)
(0.5 -1.66756e-13 0)
(0.5 3.49075e-13 -3.88346e-29)
(0.5 -1.10516e-14 7.71967e-29)
(0.5 7.67695e-15 1.36928e-28)
(0.5 -7.44303e-14 0)
(0.5 -6.24514e-13 0)
(0.5 7.65177e-14 4.92697e-29)
(0.5 -3.45945e-14 0)
(0.5 3.43078e-14 7.6528e-29)
(0.5 6.00834e-13 -7.29063e-30)
(0.5 1.20476e-12 0)
(0.5 1.52109e-13 6.01705e-29)
(0.5 9.08815e-16 -5.16355e-29)
(0.5 4.10399e-14 0)
(0.5 1.96649e-13 9.46793e-29)
(0.5 -6.00772e-15 2.33228e-29)
(0.5 -1.33588e-13 3.02534e-29)
(0.5 -4.14111e-14 -4.92325e-29)
(0.5 -6.48631e-13 8.34091e-29)
(0.5 4.0993e-14 0)
(0.5 -1.01421e-14 7.64618e-29)
(0.5 -4.16381e-14 9.86082e-29)
(0.5 -5.88972e-14 -3.68836e-29)
(0.5 -2.0689e-13 3.49288e-32)
(0.5 -2.84632e-14 3.98332e-29)
(0.5 -1.06051e-13 4.18915e-29)
(0.5 1.25088e-13 0)
(0.5 -3.74663e-14 -4.9125e-29)
(0.5 2.0571e-13 1.22668e-28)
(0.5 -3.41071e-14 -4.62634e-29)
(0.5 -9.53692e-13 3.5609e-29)
(0.5 1.37168e-13 2.46315e-29)
(0.5 1.47684e-12 -7.38634e-30)
(0.5 1.11251e-13 1.56916e-30)
(0.5 -9.32625e-15 -1.52935e-28)
(0.5 -3.41824e-16 0)
(0.5 -1.55762e-13 3.12559e-29)
(0.5 1.16391e-13 8.74853e-29)
(0.5 -7.04219e-14 2.78091e-29)
(0.5 -3.06084e-13 0)
(0.5 1.50728e-13 -1.02898e-28)
(0.5 -2.13441e-14 0)
(0.5 -1.46979e-14 -4.56709e-29)
(0.5 1.80381e-13 -1.05729e-29)
(0.5 4.01316e-15 -8.38275e-29)
(0.5 -3.75137e-15 0)
(0.5 -1.07229e-13 0)
(0.5 -3.50792e-13 1.57757e-28)
(0.5 -4.60026e-13 4.40982e-29)
(0.5 -1.30947e-13 -4.24332e-29)
(0.5 -4.63027e-13 -5.32135e-29)
(0.5 4.49143e-13 0)
(0.5 2.87571e-13 6.64099e-29)
(0.5 -8.69228e-13 -5.50621e-30)
(0.5 -2.12015e-15 -8.87454e-29)
(0.5 -1.37794e-13 9.38729e-29)
(0.5 -1.48012e-13 -1.00443e-28)
(0.5 -2.86542e-14 4.76881e-29)
(0.5 3.40539e-13 -8.97225e-29)
(0.5 4.66579e-13 1.26743e-28)
(0.5 -4.79731e-13 2.40512e-32)
(0.5 -1.09744e-13 9.39966e-29)
(0.5 1.0034e-13 8.08238e-29)
(0.5 -5.82443e-15 0)
(0.5 -8.98804e-14 -2.53187e-29)
(0.5 -9.01136e-14 -5.40385e-29)
(0.5 -8.76608e-13 0)
(0.5 -4.18047e-13 -5.02345e-31)
(0.5 1.13107e-12 0)
(0.5 -4.28168e-13 -6.17156e-29)
(0.5 8.87369e-13 -1.23626e-29)
(0.5 -5.76224e-14 -1.61062e-31)
(0.5 9.57464e-13 2.36365e-29)
(0.5 -6.66256e-14 0)