/*--------------------------------*- C++ -*----------------------------------*\
  =========                 |
  \\      /  F ield         | OpenFOAM: The Open Source CFD Toolbox
   \\    /   O peration     | Website:  https://openfoam.org
    \\  /    A nd           | Version:  7
     \\/     M anipulation  |
\*---------------------------------------------------------------------------*/
FoamFile
{
    version     2.0;
    format      ascii;
    class       volScalarField;
    location    "1";
    object      p;
}
// * * * * * * * * * * * * * * * * * * * * * * * * * * * * * * * * * * * * * //

dimensions      [0 2 -2 0 0 0 0];

internalField   nonuniform List<scalar> 
65364
(
36.3914
120.73
54.7339
73.4225
180.932
125.458
92.6602
21.6361
30.0416
78.387
23.8135
81.1466
118.193
109.559
127.575
177.583
87.6197
39.2387
109.715
82.8395
117.357
36.5486
121.626
174.111
93.1655
92.4982
37.6143
64.0008
149.726
73.7879
15.377
25.3175
120.251
53.6148
33.8021
15.928
25.5293
120.291
42.3745
185.287
120.631
61.7949
119.724
54.6858
63.0419
25.8346
56.3431
101.674
125.949
96.9516
91.535
133.445
89.2825
137.206
105.998
40.2867
87.7296
112.976
145.378
89.8145
162.725
100.248
114.557
50.6546
40.7401
49.1206
133.849
100.85
138.426
44.0368
91.7675
128.617
38.6378
64.0823
31.2261
141.531
119.001
70.0547
109.269
71.2302
92.0489
8.88764
36.6609
107.974
183.737
179.756
128.952
110.724
14.0315
79.3268
161.664
12.4708
19.4266
141.585
107.186
7.99678
88.5247
32.9504
123.596
29.086
185.342
101.96
128.008
176.371
72.8668
33.6619
112.26
93.7176
12.2817
123.06
62.8382
129.812
39.3802
95.5695
120.532
105.468
74.7296
69.3897
32.5106
117.289
84.0184
157.2
17.6989
6.56741
47.2972
143.638
79.7722
99.9895
118.681
62.6724
55.5421
84.5893
30.7291
69.1374
71.2477
124.67
97.841
52.0464
117.948
88.3117
90.0297
73.8861
34.1615
33.4777
38.1961
92.5142
176.671
110.91
42.184
11.0406
150.96
87.78
141.802
94.8001
156.331
81.2792
7.69112
99.5899
114.772
179.966
46.4216
2.34199
3.10961
142.153
95.2399
32.3624
66.156
84.1375
143.252
83.7412
43.509
22.5421
46.6992
104.839
135.302
25.964
114.697
5.30912
51.0486
111.785
185.766
106.43
176.917
74.6919
81.3159
36.6908
46.9006
40.05
83.9897
19.944
7.93511
56.9392
127.457
90.2544
134.796
10.3058
38.2985
20.8217
84.533
60.4053
116.038
118.64
99.2793
45.5969
27.9597
118.443
85.4558
41.1245
84.0711
95.1684
91.9511
20.4187
36.3882
55.1431
68.3963
29.4831
11.6828
15.4331
55.4512
87.0039
63.6236
20.2831
59.7775
10.875
18.2196
106.14
131.674
58.6304
83.0922
17.4781
89.9768
39.2568
145.133
107.292
178.272
134.085
8.60162
99.7891
15.3052
38.6166
14.9126
14.9381
14.4802
40.1245
14.5257
104.452
80.248
129.44
117.313
29.5524
102.824
185.485
178.544
133.491
53.3372
113.671
94.0811
147.712
124.336
141.394
99.084
40.8401
126.812
21.106
77.8585
62.854
123.086
87.3939
185.905
101.723
154.416
109.854
67.206
162.687
17.1029
142.751
67.5464
15.2085
8.33986
57.5639
24.2207
22.5724
55.2799
90.064
176.205
64.15
121.762
42.1527
47.2276
112.719
177.888
91.1471
43.9301
93.8071
123.309
61.8971
92.8591
107.942
10.3682
89.66
175.741
170.423
131.825
77.593
50.4768
41.6724
140.016
120.434
112.196
128.305
29.9323
14.5991
116.302
64.955
27.255
47.8599
84.3053
121.012
64.3378
43.5837
48.8474
59.345
148.149
74.9284
33.0686
71.0121
14.3647
72.6415
58.4137
130.439
111.86
30.9101
15.1103
20.754
124
40.216
115.297
126.692
53.2391
22.9553
60.7378
57.2502
37.3751
12.865
58.9775
115.279
34.2383
122.782
83.2677
12.7485
-0.027273
81.835
113.997
175.588
31.2292
121.136
18.6098
42.8637
87.5125
39.0644
21.3214
37.2426
79.1347
107.169
65.9443
75.1944
73.3154
131.404
24.2701
13.542
86.3676
72.7687
178.478
104.43
136.241
18.5391
52.0887
114.016
40.9269
43.4137
89.1569
38.8701
87.2965
13.7079
32.5433
122.88
70.8502
151.301
186.432
104.189
75.7082
181.73
107.307
143.198
143.392
79.6591
109.457
122.797
126.649
113.879
120.34
35.8843
134.736
112.369
103.802
37.7562
34.2384
72.5996
125.689
173.836
41.5333
34.9765
38.9273
22.3141
31.7722
12.3677
91.8711
175.859
149.687
163.996
95.8948
123.334
87.8486
39.2385
25.7439
118.776
143.026
110.079
40.3375
122.018
97.707
93.0124
12.8659
42.7161
64.1225
123.186
20.3295
8.62693
175.268
125.885
115.495
128.828
41.8528
123.488
59.0498
79.01
77.0214
128.268
60.5112
70.647
29.5837
187.145
107.95
38.778
18.6087
77.455
20.343
12.8861
83.339
13.7198
101.552
96.2765
127.738
91.7891
54.9428
64.7338
31.1491
65.1681
74.6894
163.967
96.1943
42.1579
98.9011
13.7696
79.4797
108.547
49.4292
178.976
102.495
130.323
57.5942
101.336
185.277
123.055
73.4822
167.068
92.9155
98.4564
177.658
24.2808
120.944
110.064
50.2742
107.211
120.725
160.579
74.3617
123.375
53.6744
14.1229
39.0115
16.2649
108.551
186.436
148.526
110.663
187.78
105.269
124.206
120.037
180.686
127.425
9.99264
127.009
167.377
125.763
125.107
142.491
67.3557
20.0075
89.4176
29.784
67.0022
149.933
118.905
139.582
105.047
88.2805
88.2182
9.03786
120.805
52.87
64.5744
28.1894
59.5822
135.234
15.6414
60.4811
120.8
33.1692
32.2303
44.8146
19.7669
76.809
13.3522
58.8287
62.6722
32.1333
41.3241
28.5184
76.5261
185.731
116.352
126.247
13.3317
21.5172
148.762
123.331
27.77
139.407
89.6207
51.5322
103.823
123.635
55.1907
68.3036
66.7748
73.3483
146.363
178.434
130.259
78.8594
41.1252
168.643
113.796
57.2317
130.91
178.403
133.841
51.9714
23.0182
187.146
103.936
74.7243
108.253
13.3464
12.7376
29.0738
120.275
122.952
139.513
138.741
29.1286
2.9188
5.59496
90.2208
20.0592
123.119
186.854
107.002
6.06952
70.1335
162.504
53.3121
36.1589
14.6752
105.791
92.6945
41.1655
42.804
179.26
108.509
68.6135
117.506
50.4046
52.8079
12.0239
115.666
184.736
100.255
5.04852
3.79078
25.3142
96.6687
68.065
149.196
34.1039
125.04
68.6904
127.76
105.812
42.5884
82.7709
74.1341
160.852
125.395
14.4399
7.93084
14.2067
128.482
63.1811
120.045
98.5131
77.4222
108.876
52.2965
44.1559
73.5767
67.3372
176.338
116.564
99.1526
14.4667
8.10083
20.2451
139.733
118.094
185.813
98.7423
178.09
32.216
88.8697
55.1634
10.2097
16.8019
119.634
52.737
112.51
75.4375
59.7777
116.547
125.964
144.406
6.49249
31.6222
79.2071
67.9652
105.673
21.6082
123.122
128.227
123.993
123.135
95.7218
140.484
13.3591
58.0806
112.242
179.56
39.7316
10.0653
7.0258
112.216
52.0976
31.0508
14.4464
36.6818
80.9097
17.9769
16.169
73.9231
36.0518
19.5161
19.7484
13.5388
141.041
89.7982
38.4762
145.023
110.374
186.4
13.9112
16.2533
44.4561
52.3564
104.999
145.51
75.6783
99.4525
47.9918
131.375
73.6028
79.517
157.492
121.443
39.9159
22.6766
35.9799
56.1529
83.2937
33.1952
71.8068
12.9048
83.168
42.0935
92.7309
8.9578
52.7638
107.565
43.1868
84.762
51.3734
117.618
65.7047
55.4935
86.6489
14.9911
124.51
34.827
187.93
109.822
17.1676
68.0014
36.9389
81.8034
29.5901
40.5698
82.7597
88.4522
135.613
72.3529
32.2857
128.8
124.521
95.2671
117.569
47.3539
100.883
43.6419
111.451
185.814
52.1763
7.38889
109.556
76.5941
9.91509
18.0481
61.8056
126.403
41.6667
89.0479
182.977
98.7444
12.1315
110.254
54.5698
52.0318
22.831
104.831
86.9859
40.8925
118.971
47.0901
119.003
56.1837
110.321
66.4743
27.162
29.2827
57.326
118.587
33.2323
25.9132
160.446
115.827
186.268
116.761
24.9119
119.715
72.6548
108.426
187.276
122.354
175.706
135.222
83.2135
29.1766
64.0541
124.01
166.69
124.633
19.9781
174.965
125.889
74.2333
121.568
107.222
64.956
39.7792
20.2331
111.283
22.6769
23.3449
50.4501
103.521
85.9644
34.519
106.257
38.6154
84.3242
113.697
184.954
181.086
125.816
127.894
141.988
162.418
130.032
12.0281
93.8196
167.183
2.07939
47.7608
132.966
37.6364
78.2044
156.407
91.5957
15.7121
26.4664
28.7938
52.6041
108.683
130.265
82.1737
10.859
92.7258
108.602
87.0231
27.8691
57.9795
14.4928
38.8533
36.4572
180.652
106.714
147.085
101.315
44.057
15.3519
80.198
173.719
133.299
93.3244
184.968
121.595
36.3021
14.037
44.3852
47.2945
132.213
86.1514
78.0124
113.104
187.65
96.5076
107.519
184.135
38.3877
19.5382
79.9575
36.5358
78.183
82.0352
113.951
64.7053
174.339
133.124
108.169
178.679
93.3523
76.2446
181.087
109.947
40.6615
31.0571
121.81
161.672
10.6518
50.9212
114.001
106.247
126.571
122.345
80.1403
36.0784
94.5637
154.145
112.789
33.8776
72.6734
176.678
129.843
28.6994
147.461
92.2119
31.0158
42.6715
113.167
66.9457
106.61
152.085
145.542
146.168
72.4696
71.004
160.98
111.69
18.5802
8.24734
131.654
46.889
47.5064
122.758
182.378
102.593
26.8593
12.256
149.4
64.7041
62.199
26.893
93.234
121.089
47.3754
40.3302
87.5391
42.7805
117.197
120.811
59.611
64.6233
78.008
176.644
102.91
119.746
25.138
13.1679
125.584
119.663
18.4433
10.1139
100.92
176.903
76.5131
19.6078
13.4
93.7167
180.709
110.453
87.9134
39.486
9.26196
45.3634
92.263
175.645
104.915
86.0252
28.6373
124.042
19.259
138.784
61.3897
73.434
141.729
123.06
30.9191
40.155
100.643
94.4256
32.8387
26.0115
16.2816
126.394
68.4637
123.32
154.558
94.9896
17.7172
14.5106
124.729
124.06
93.2176
166.871
149.286
106.394
55.9049
125.553
80.4774
100.849
46.0854
112.698
182.252
127.457
180.848
119.338
50.9914
64.3662
11.2203
40.7458
30.0877
77.5874
55.8268
89.7143
145.416
15.439
119.977
10.7411
44.1705
63.9742
27.8563
111.66
55.4995
167.548
96.1192
13.5945
2.41132
121.528
66.8793
123.861
56.9466
118.423
135.301
70.6582
129.684
11.3016
9.31495
17.7916
24.9658
39.8912
109.508
36.0189
28.5345
28.283
80.2773
12.6671
70.2569
94.8945
8.72995
65.6063
109.652
164.263
104.067
105.917
162.581
175.462
104.514
107.594
93.9677
15.4481
34.772
28.1667
101.814
44.8693
122.9
89.1383
176.267
15.1331
101.126
58.2611
34.0847
144.43
30.8746
117.488
60.8693
25.6443
8.0408
16.2598
118.017
24.4779
123.251
50.9072
67.4903
76.1226
44.8491
102.429
163.607
119.204
46.596
19.0685
92.4538
139.833
141.66
56.988
93.3622
7.84069
8.3516
27.5031
123.537
34.821
17.5003
101.818
77.1387
13.0785
48.6014
111.656
111.955
51.4801
86.0232
8.89583
54.8815
125.046
90.852
118.134
59.0937
67.8933
14.2654
29.2497
56.5157
16.8195
36.5249
100.604
83.7961
24.5865
7.40022
43.3324
26.7205
108.377
185.193
50.4198
20.9963
49.7634
116.008
123.527
17.2274
36.2567
9.92722
121.567
185.405
71.6653
77.886
23.2663
93.2553
44.8508
39.58
107.345
89.8365
161.011
76.575
32.863
110.004
132.74
150.397
120.775
21.517
49.3673
43.1424
9.40655
175.86
134.815
27.4628
52.941
74.9853
48.1036
115.575
86.9
39.6604
82.6716
148.532
82.207
99.3358
24.8524
72.9852
4.03773
60.0111
108.816
176.314
151.719
76.3167
106.884
10.7024
118.349
51.8938
67.8981
67.5809
36.1749
70.3579
52.3901
73.1207
159.827
43.4622
40.8814
88.2603
116.171
88.2943
134.204
62.8633
131.029
162.824
134.45
45.2975
97.4405
100.503
47.502
66.1965
30.9738
68.8193
122.96
78.8805
79.0497
127.931
104.982
18.4886
38.3145
132.423
93.9799
85.8679
144
91.7267
110.794
180.645
107.863
112.054
184.117
38.256
80.9242
58.2972
117.19
149.164
172.955
127.139
98.1168
65.1393
112.973
183.706
47.2414
137.038
47.9314
64.4798
74.428
151.286
76.2157
122.457
126.696
178.49
61.6965
28.8158
67.9212
122.925
162.294
85.0159
116.038
159.822
64.5502
106.695
21.8815
120.009
33.3565
142.993
56.2004
110.227
135.939
116.872
180.081
124.502
162.593
129.44
36.345
38.3516
142
84.4335
35.6286
123.049
6.00523
9.73445
103.03
163.124
78.2815
94.2544
140.343
100.752
106.198
77.3917
63.1214
50.4051
104.913
21.4745
96.8558
83.3516
33.9168
128.686
62.6783
151.909
118.341
112.757
167.177
35.0647
145.254
100.184
114.313
135.376
65.6282
108.747
56.6476
131.555
80.0008
9.82029
87.623
113.519
136.261
95.7687
44.5448
107.086
75.1979
60.1061
176.477
130.319
44.605
156.39
73.539
184.788
101.562
30.1769
128.855
141.187
111.832
186.309
26.4598
62.7805
42.5128
8.43735
11.5983
147.528
73.0032
38.1146
16.659
58.4794
133.642
63.2451
97.219
52.5326
21.8298
162.073
124.881
34.521
54.3867
134.694
138.342
107.2
143.804
67.1425
60.7532
13.2861
20.6422
62.3766
68.7081
28.2737
5.64256
11.038
147.324
104.613
46.6081
22.6783
144.589
123.311
116.289
19.8847
135.001
60.1299
3.92245
9.23473
35.2795
17.4594
100.402
13.4169
24.2865
3.73275
64.8149
26.722
7.88325
105.942
13.867
24.552
40.7335
41.9859
95.6365
92.5544
101.041
123.368
46.6429
103.769
44.7519
93.5961
89.1445
91.8916
178.945
44.0192
40.2926
123.097
43.3744
124.226
106.088
159.656
14.8965
123.394
62.001
137.457
115.623
104.844
123.542
123.484
114.89
91.8349
148.174
67.2769
28.9082
88.9114
61.9952
139.929
130.356
109.683
101.31
130.022
37.4611
49.3855
126.494
106.47
7.63871
28.2786
57.6491
114.01
112.318
12.9007
97.4998
13.9534
133.091
87.0874
53.4536
134.59
60.1343
135.579
71.6744
47.5305
22.8991
62.2795
95.258
51.5826
133.43
5.03941
61.8918
29.0842
57.1733
34.2348
40.4462
53.5059
168.25
88.3681
38.3361
87.1941
23.7311
42.134
141.782
49.1586
107.85
47.3883
102.281
143.145
74.4552
149.646
55.4095
75.7129
103.791
111.918
185.886
34.7684
67.3205
89.2246
88.307
42.97
73.1721
115.121
7.61907
12.1614
167.846
96.9694
26.0206
83.7294
137.788
13.1517
63.5378
6.80618
12.9594
32.7055
100.459
91.2774
177.857
22.7251
13.7767
25.0003
111.958
55.7866
78.732
44.1663
137.364
73.1949
70.9782
123.14
14.786
62.949
75.2983
175.754
134.711
27.9468
49.39
37.2847
153.182
93.0606
18.7005
111.284
56.7846
39.9883
32.0411
29.9864
123.066
6.94208
21.0055
11.6704
14.6905
84.4538
70.5172
110.873
183.305
124.619
95.1568
122.952
94.9739
7.79219
8.94576
16.5021
68.3989
158.961
106.532
184.231
100.299
149.064
99.0407
138.637
53.1547
62.0441
127.548
42.4862
21.8574
57.581
51.609
95.6962
42.8821
111.705
22.6799
84.0964
38.5933
57.0637
64.0183
102.382
50.4447
107.672
106.944
53.5873
107.281
22.9228
23.5501
60.0179
37.3229
29.1248
53.4977
109.05
70.1401
44.7245
45.7954
90.4766
5.871
45.5755
17.7547
40.5851
17.6436
40.8444
14.1128
123.437
55.6904
24.6079
43.1631
70.5981
181.52
98.6265
55.8233
98.9164
47.5817
70.6797
186.231
107.837
28.8086
13.9388
56.8005
46.7839
97.8893
100.51
71.2081
40.0978
5.84249
18.2328
8.78032
86.1094
40.7219
78.0727
54.5265
25.467
146.713
19.4788
48.4001
188.8
114.996
136.209
79.4879
56.9172
9.97899
5.70574
185.633
118.042
42.5278
64.1999
151.171
70.7948
12.4396
24.9179
65.9582
157.353
73.3372
137.828
72.5551
61.8405
122.896
99.0599
136.603
61.0125
100.092
123.009
95.8076
146.485
99.7396
135.076
125.154
122.997
9.66262
38.3
16.5362
42.7897
75.5998
133.318
17.9157
51.1232
56.9748
132.093
122.348
152.787
74.8508
108.754
105.017
145.098
80.1475
134.142
77.1343
108.282
83.1099
123.878
105.796
52.6638
135.469
66.2646
38.0623
58.0987
122.201
123.62
88.0571
148.772
123.659
63.9601
22.8652
37.8226
33.868
73.3168
106.949
34.0533
25.9727
127.27
68.0409
131.046
120.382
150.281
76.8931
32.2168
144.994
15.8627
33.692
123.923
113.853
182.949
149.971
70.7035
13.0391
25.6216
70.2758
86.4144
118.011
181.254
151.728
74.1097
59.3246
60.1223
137.79
46.8259
52.4141
119.651
89.539
35.0588
122.537
63.9946
64.9712
32.1501
88.6956
175.743
28.8572
20.7327
184.902
106.654
10.818
79.1006
154.133
121.659
84.7411
153.795
91.6167
37.6185
22.0887
62.0196
133.711
75.576
24.7089
147.734
92.1588
103.662
177.816
100.434
123.13
46.2021
106.354
152.972
119.642
17.329
74.2271
98.6622
60.9305
38.3184
123.053
94.8176
44.0369
71.6016
37.0828
148.25
97.8128
30.0359
85.5209
87.3713
133.039
79.8978
157.448
18.5578
138.191
75.2483
123.148
36.617
122.839
62.8083
104.231
3.79651
1.05426
34.7459
50.0591
102.417
70.6046
16.5634
5.6158
16.1617
48.3714
93.8962
62.3498
114.743
74.6288
74.1685
167.108
92.9394
109.223
142.171
23.7273
187.127
103.83
116.73
106.081
34.0668
10.6875
17.3154
185.144
102.875
126.517
109.299
41.9496
171.741
133.683
26.6714
57.5413
120.096
66.9217
135.669
80.9094
172.966
126.884
32.7021
148.624
59.2767
130.309
61.5361
57.6354
14.7924
28.7155
129.244
71.8752
22.1114
13.1473
105.254
164.508
48.3061
105.431
7.30316
4.18169
89.198
41.5799
19.9819
123.127
39.5701
17.9567
114.814
90.5524
152.443
115.884
53.8646
86.8753
161.874
157.734
87.4953
36.9632
46.7372
27.4287
82.7241
53.8886
95.031
168.981
106.183
184.982
106.464
108.003
39.7902
86.0403
109.956
32.3634
24.6373
37.8635
111.014
71.8185
96.2401
39.1964
27.4335
92.2182
168.09
24.7382
182.576
98.578
14.046
67.4308
148.474
6.96821
144.127
147.409
82.8679
54.4581
124.752
57.7688
105.106
8.10861
18.2425
52.0194
110.875
123.069
12.3995
121.164
94.9602
63.6653
95.1909
123.174
167.094
130.296
60.0925
41.2232
13.715
69.8284
146.741
34.695
14.349
78.5409
185.06
118.064
97.6387
84.3836
39.2317
124.365
124.295
50.3424
60.0976
96.2954
45.4498
18.2507
37.7009
37.184
16.8138
51.0655
85.692
107.194
2.85089
3.22226
42.2709
149.731
68.9577
49.7885
49.7934
118.776
5.24734
13.3842
123.084
123.995
181.264
32.598
2.70072
84.3078
111.768
162.221
105.87
109.657
105.215
107.241
53.6714
24.0868
60.1054
18.1565
123.996
178.832
94.2049
123.945
84.3617
167.925
88.3785
114.925
121.589
8.92334
123.514
43.0635
183.241
124.545
52.1153
118.66
120.063
122.912
79.5116
61.5067
13.2327
110.485
50.7929
107.862
62.5556
49.315
124.69
57.924
74.4336
23.1499
54.0366
80.6356
164.22
121.993
39.6903
24.6957
8.3186
101.351
31.2656
47.743
41.3403
98.4888
100.006
100.046
64.1553
53.7562
115.049
85.5152
152.459
154.18
71.345
110.578
91.3081
34.3429
78.258
93.0562
105.323
71.7041
144.188
111.345
132.555
38.5324
114.435
51.4295
94.1309
177.471
118.189
49.427
83.837
38.7595
81.7717
83.1352
80.6829
36.1048
141.613
132.419
105.198
45.851
50.8685
131.991
60.4364
181.811
115.223
118.583
121.058
22.9234
57.2158
120.276
97.0814
63.5201
4.71862
124.625
108.138
132.812
63.1133
119.909
22.7578
62.5642
95.7861
15.2316
23.6803
28.1557
10.0619
94.2466
6.88638
91.5744
21.9146
48.5493
61.8118
27.993
40.7276
126.652
37.7343
124.876
55.4279
19.5509
161.883
84.9783
16.9654
131.133
27.688
15.0615
70.712
21.2381
132.031
128.64
152.017
134.025
59.4678
63.4667
115.579
185.216
15.4076
59.1069
101.873
42.9035
12.2664
123.158
117.792
160.343
124.188
121.789
100.388
36.7278
98.6252
57.6296
125.771
65.2257
16.9498
94.1056
11.2968
186.373
108.086
28.9998
49.9148
112.27
95.393
119.032
182.252
9.11662
114.241
57.1845
8.79433
121.429
57.4556
124.876
181.209
107.887
123.112
94.0101
84.5661
44.1502
101.502
28.5244
123.166
38.0121
137.716
65.9473
32.9455
21.6247
177.908
117.96
52.2987
24.6283
10.6562
162.855
118.901
92.5118
138.126
71.0218
49.9402
111.42
52.0316
22.0753
31.0774
61.7949
133.277
38.2573
88.6153
175.727
56.5036
66.1161
132.976
123.527
152.062
38.7995
75.7127
116.504
11.2915
78.8498
80.4244
124.158
35.9332
169.921
91.9188
72.718
170.192
9.35881
33.7237
105.054
5.76435
15.7563
107.323
51.6926
50.9367
108.452
145.16
33.175
71.6883
123.165
41.8541
46.3024
125.376
55.7981
123.82
18.2585
23.8115
129.957
27.1112
138.422
158.613
124.193
141.764
48.6253
136.959
59.9962
28.3832
165.413
91.0283
32.3606
144.934
97.8374
45.4969
46.6815
70.853
21.432
88.4321
134.975
73.0364
123.506
44.6761
91.5656
144.663
80.48
100.526
62.2998
24.5542
27.3696
17.6816
46.342
37.6559
86.7025
120.679
75.9194
140.025
82.852
17.004
105.415
169.655
103.253
95.2385
74.123
99.2328
134.976
80.7997
106.668
78.9963
24.7105
26.5612
63.8821
46.9463
105.994
43.0165
20.7763
41.5406
97.1453
44.5062
1.22116
20.3242
140.928
70.605
45.3587
101.426
27.5844
57.5353
93.2151
85.8675
180.496
97.8417
40.9055
106.182
29.4303
41.5173
42.185
82.1799
36.7728
80.7231
148.512
67.883
85.9855
37.3241
115.981
107.955
174.949
87.9482
40.0547
66.4188
122.324
110.551
104.215
22.5712
55.186
30.4247
63.6886
94.258
169.597
121.533
113.915
50.7194
123.137
37.7789
55.0367
92.6639
139.362
30.1286
114.023
182.635
79.0888
94.4178
43.6808
44.2337
93.5924
12.8513
7.77492
101.015
103.933
98.1506
71.7642
123.123
98.5241
174.028
24.6909
123.299
43.3334
68.5482
32.2454
110.943
159.684
94.4285
19.0271
95.5796
72.2969
6.04223
55.7528
27.7824
149.719
54.0572
108.902
31.8206
37.1892
53.9645
25.86
28.7945
67.1596
128.672
94.4083
44.2706
82.7766
141.707
48.9636
22.875
131.419
48.5223
99.6218
47.5365
183.6
114.428
15.575
70.3753
184.088
106.695
154.41
122.064
143.444
25.5762
170.734
134.766
41.5067
66.0736
84.2668
142.152
79.9449
35.3662
16.8034
55.065
180.051
137.307
78.035
105.717
14.2491
123.625
49.9789
108.184
185.746
141.481
35.6539
76.759
100.912
85.9748
27.8291
113.311
83.2002
62.0606
179.116
94.6425
58.5433
66.2739
42.9229
111.78
154.029
127.763
84.5901
49.5074
80.4802
111.848
31.466
45.5631
113.385
5.11865
0.712312
42.8672
47.6833
181.171
117.25
56.6593
48.4454
110.393
106.092
149.02
86.9695
163.392
134.057
10.357
69.1716
106.358
110.47
28.9376
102.366
142.425
95.0473
61.1227
99.4894
123.238
105.966
150.853
74.6303
29.2768
155.345
95.455
14.8954
40.883
25.425
45.0059
126.633
178.775
131.217
59.8102
162.159
78.2018
89.8486
67.512
98.3626
159.295
23.8223
6.33901
148.793
45.7949
153.751
79.9738
98.7453
47.1761
60.7472
120.521
63.2982
126.273
94.8825
144.21
123.058
102.808
47.7763
158.734
94.1417
123.965
126.062
36.4574
80.7958
81.1021
88.9056
175.922
141.159
46.9733
61.8952
20.8566
112.048
166.272
14.8387
33.2335
14.525
48.0537
105.477
17.2476
67.4642
81.7414
98.3445
111.563
109.101
66.3625
50.2864
111.191
73.2497
22.4533
10.8059
115.254
176.266
114.608
55.434
115.257
20.9783
35.8154
80.8516
23.1126
35.528
106.368
122.744
92.7923
128.499
73.576
109.042
52.5094
85.018
59.7127
18.0045
79.6125
100.236
67.9748
143.617
100.829
123.166
104.819
80.3853
123.829
46.5471
123.511
169.597
36.6762
30.5962
65.2436
36.0494
11.94
80.0936
162.679
118.789
86.1697
32.228
16.4233
92.5233
153.683
179.356
126.913
133.231
62.0422
131.908
60.9522
14.642
129.322
42.8373
56.1788
97.2138
73.9432
83.2803
40.2006
57.718
126.471
117.492
76.1051
23.8117
24.0671
38.894
82.7014
79.4109
142.475
47.8479
79.7708
115.874
185.572
96.1873
14.044
151.801
184.318
115.591
50.779
25.1775
133.956
74.9332
123.072
123.071
127.094
96.2287
93.9233
4.21219
143.379
124.295
41.0742
83.8724
29.5731
40.7714
24.0487
178.378
93.7711
44.0292
158.317
32.9379
69.3458
111.95
32.9922
17.8879
22.0027
55.0096
16.7391
16.5859
24.2978
53.8151
100.47
31.8026
75.7556
104.778
55.9502
120.599
16.0334
122.566
56.0533
14.568
57.4547
179.516
111.517
84.4012
18.1784
39.8905
77.9171
52.9875
125.071
6.44279
16.6999
88.314
24.0137
11.1653
9.94316
123.98
84.4349
167.704
82.339
38.8282
171.154
58.8096
131.18
135.753
87.6758
174.603
60.9456
123.029
55.171
24.0517
69.2111
80.3605
75.5678
140.182
75.9269
136.579
62.5768
123.869
93.1205
26.9263
87.4564
74.0775
35.3672
125.856
55.0054
112.161
161.927
88.0575
22.5801
5.85228
169.429
110.544
97.0841
94.6097
15.6578
13.8982
24.5373
11.0259
83.4026
114.239
52.4765
34.7459
109.491
53.3162
33.8396
43.5868
27.9327
80.5479
123.14
72.8022
123.087
114.621
82.241
34.7149
149.611
69.6942
176.459
133.643
103.687
179.054
127.505
160.561
24.8247
142.189
25.8328
114.863
78.2344
43.357
56.2036
180.383
128.506
28.6944
72.0786
147.175
59.9744
45.0223
20.0723
15.0529
52.1096
25.6711
107.469
42.9592
154.357
123.178
33.7959
89.232
73.7748
34.5161
11.6296
123.515
37.3186
82.9975
71.304
152.485
76.7713
101.056
113.676
102.881
185.914
63.675
95.4988
27.6874
66.5013
101.296
168.03
87.6801
153.628
74.9209
87.7783
67.0185
121.97
28.9756
176.836
187.093
106.88
47.3373
21.5204
80.8231
109.599
136.438
99.3653
45.6693
145.13
117.811
32.1275
45.2935
98.3169
123.76
11.9605
43.6363
10.119
167.031
47.379
86.3694
31.3633
33.5405
57.8644
17.0327
62.8628
101.356
111.245
184.565
63.3348
125.059
34.8765
20.5158
49.3297
45.2981
59.8023
135.79
68.4511
103.904
186.354
27.1886
175.304
91.4572
98.8619
107.991
95.2567
76.7154
96.1742
81.0677
37.1936
119.585
50.0459
25.198
21.941
36.3351
73.1704
41.9923
99.3352
135.15
14.6293
14.3292
16.1752
14.5829
102.848
34.731
19.6603
83.9507
146.004
76.8145
92.1811
25.3853
105.394
124.758
50.8061
110.455
126.618
141.558
115.383
94.5194
125.375
95.7793
104.02
120.277
76.9348
147.356
54.1221
79.475
117.579
83.1209
78.7049
59.5588
136.573
49.2755
78.2398
2.60845
43.0688
35.8307
83.53
170.635
102.952
39.7437
96.918
43.9654
15.254
33.5919
20.886
42.7809
95.5948
97.3924
46.167
105.016
90.1451
172.681
109.938
186.316
28.0623
100.34
163.262
34.0446
75.2431
24.7527
13.28
92.8726
63.0758
17.0311
4.81751
5.91785
58.8473
123.648
124.203
182.371
125.316
18.5947
124.442
9.86226
12.2238
31.6479
62.634
11.3557
37.8468
84.5758
174.432
93.2454
109.963
158.148
129.644
16.0861
134.774
53.3585
24.6357
123.622
48.3009
7.51197
93.3515
86.083
172.934
61.9011
125.02
3.63248
92.9465
41.2684
38.5908
31.6949
46.3633
106.618
107.124
46.0287
68.6584
123.605
65.899
32.7036
68.7323
30.0434
68.9741
25.4197
26.4485
77.8295
171.875
86.4808
66.8731
97.0103
85.4186
156.013
9.09497
93.8185
44.399
42.1416
121.889
144.253
133.512
66.3099
40.4741
83.9163
47.3922
108.151
14.5446
43.2356
38.0102
103.515
185.969
114.818
181.816
58.2634
107.32
48.0222
104.078
46.7411
48.9261
85.4866
130.376
179.418
3.7283
74.0596
4.54882
92.2003
7.75157
7.3044
168.362
120.762
53.877
62.6314
117.588
124.444
48.8188
101.531
8.47226
81.1365
168.765
112.056
123.118
159.646
79.4716
166.379
62.9566
30.9028
76.1908
146.548
81.7136
76.9359
71.4302
15.0756
32.3471
67.3014
22.538
23.4194
129.052
69.9658
91.7301
139.488
40.0898
80.4494
106.901
13.8323
183.662
124.239
130.297
67.1868
96.9859
144.785
146.543
80.6128
83.8135
83.1394
148.589
28.2005
70.9417
142.179
107.72
188.339
123.104
180.261
128.458
95.0722
15.7462
101.492
155.483
111.396
95.9887
17.6425
13.4614
6.75495
9.27665
21.0334
62.1622
95.1344
39.8631
86.5458
88.7772
139.482
45.4092
182.338
118.138
120.714
172.677
120.516
52.7028
132.152
64.6697
37.3239
123.976
123.654
11.0148
83.8096
86.0336
41.0067
131.829
32.417
79.6975
86.1608
161.502
75.9564
36.7395
71.4432
144.555
85.4459
24.7355
54.0432
60.3589
137.474
18.2115
43.409
135.921
93.1184
26.1248
56.219
29.2955
14.9969
176.317
134.081
57.8422
132.533
109.859
186.675
123.987
138.371
57.9027
53.248
121.904
84.5074
177.018
31.407
132.507
128.361
126.653
143.285
99.2992
17.862
176.36
125.489
136.629
122.498
22.8476
124.089
66.0647
13.0522
138.846
9.83724
140.743
76.5578
36.8307
104.954
104.053
31.5757
75.8766
90.47
39.9066
114.87
73.8809
46.9661
61.147
131.783
24.5631
67.6826
123.394
23.9583
122.732
57.6313
94.1536
33.8831
83.1642
2.89042
85.8422
70.0772
31.0651
154.929
32.6892
9.36178
19.3114
24.7642
174.089
129.944
112.716
37.3322
14.2988
120.428
53.1203
136.44
59.7447
59.4882
184.234
106.541
48.9258
107.956
104.643
79.3437
65.1901
41.3688
91.8292
122.488
56.3148
96.023
22.936
128.33
14.7214
125.26
123.106
2.86239
32.8135
78.0591
63.9265
46.8624
58.6497
130.479
9.53218
11.7264
105.739
48.3907
95.5866
13.9164
4.82321
123.775
181.63
32.0871
66.7727
122.867
154.355
105.134
123.328
53.538
102.902
74.5222
130.591
179.657
129.204
95.2496
113.614
179.465
19.1891
9.15443
70.9205
165.225
42.6126
95.1279
170.301
65.8587
28.3788
8.51487
16.5907
105.108
168.861
131.214
125.129
182.003
32.4658
123.49
181.972
28.8872
114.321
51.6568
92.8932
23.8963
62.5547
43.9735
79.1718
137.804
47.9894
59.4208
24.8789
147.594
67.8866
122.316
107.297
49.3436
119.234
84.5071
102.716
85.6559
156.368
37.3995
40.4826
2.39886
5.06024
159.699
79.2863
60.9265
91.0379
42.2423
94.9977
25.2419
106.564
42.928
117.203
92.6066
179.611
59.6135
144.329
112.349
185.731
98.8712
36.5082
15.0118
42.4473
90.7656
74.0853
78.3492
162
36.9101
80.3953
37.9548
89.4967
122.842
96.2118
99.54
48.9796
163.137
88.9313
19.0704
16.8764
163.313
104.7
100.738
82.6668
172.073
116.336
23.7725
42.9899
9.95145
94.9098
84.8164
39.3369
134.909
21.853
127.842
46.2954
99.3506
118.716
118.215
185.155
86.1108
123.842
15.3646
38.0229
83.1575
72.5354
154.924
167.242
107.047
98.5338
29.5473
181.596
94.806
107.351
91.7675
180.404
93.5482
125.183
9.07341
54.1962
121.695
185.097
77.3723
57.4925
131.953
104.906
124.99
7.92472
11.1301
130.432
57.4156
25.1866
146.089
70.9571
36.4344
117.443
111.806
47.7646
77.4498
33.5929
26.868
65.1331
93.288
114.799
186.889
9.33826
60.1171
14.5212
135.781
74.9478
35.5646
50.821
119.607
181.662
106.509
180.199
128.448
69.4235
23.8261
91.0055
70.6028
70.9285
145.345
45.3975
123.314
57.7894
85.1769
49.1242
37.6359
19.0415
107.808
105.252
109.273
72.3299
36.6014
16.4368
99.0148
30.3621
114.346
181.138
122.957
82.826
78.0433
45.0834
41.7629
90.3695
123.272
26.1346
117.561
58.3861
38.2874
96.8438
46.6378
48.9311
119.268
62.3589
90.9957
99.4586
105.508
28.2257
27.7994
113.656
121.032
50.7386
109.185
27.0201
11.6671
103.937
47.449
64.4367
178.562
93.7556
49.0842
107.941
15.1782
42.9219
29.5203
57.3204
6.08823
9.33478
53.316
25.2387
8.18117
123.176
93.4024
102.238
43.4574
5.91235
176.821
63.7458
131.902
185.494
105.271
47.815
110.362
122.645
80.1933
57.7746
43.6942
61.8615
25.8176
126.673
116.356
105.028
8.39471
65.6339
31.3131
117.861
30.5814
24.5088
66.9265
83.7426
155.034
167.545
94.5122
127.145
36.6983
78.1908
32.969
51.4982
115.62
128.733
69.1732
59.8098
12.3228
25.0501
75.5243
12.5807
57.4996
95.1639
21.4534
145.635
85.8664
62.5138
9.87421
31.8892
11.5099
40.0953
3.02968
125.884
173.262
171.907
111.734
93.3402
44.2003
35.1886
67.3916
46.8457
104.338
63.4469
37.7869
61.0337
3.43914
3.13345
146.94
63.8285
26.3171
57.0323
122.481
130.097
117.587
74.8174
57.584
131.611
124.624
123.52
71.9816
146.142
167.691
60.2736
134.074
123.54
170.58
103.546
31.7075
144.646
69.8464
22.29
128.485
50.0325
20.0309
186.402
106.171
16.0606
74.8466
17.2181
34.5809
13.6401
60.1586
49.4492
106.57
87.0985
32.2349
123.951
118.01
120.662
94.2413
179.055
108.892
14.6848
62.3896
123.203
55.0228
179.646
114.546
59.1737
27.8436
11.8914
21.6484
68.8801
137.223
119.756
52.4449
161.889
109.704
149.971
71.0408
134.879
23.9281
19.3201
93.8308
142.224
102.09
45.4819
123.515
140.652
115.936
35.9543
61.0243
42.7837
121.821
54.7888
75.2018
46.1094
62.2977
70.2752
49.9775
22.7945
131.126
76.7658
67.1953
12.3287
14.3253
37.4993
118.014
186.256
10.2775
35.0791
103.745
186.535
90.7511
62.2103
128.866
13.6157
72.2594
9.84077
144.759
93.6124
178.128
123.494
77.3903
56.3182
98.136
119.935
9.69411
38.1727
16.6881
38.0057
83.1748
112.154
116.583
15.3591
33.0273
170.291
131.068
130.069
70.4887
95.643
78.1651
101.936
104.506
64.6633
67.635
53.6122
116.394
50.8264
14.5183
103.89
81.5612
124.592
49.3335
20.7276
144.032
79.7923
51.9423
114.415
122
182.111
118.048
73.1515
146.909
9.21434
124.708
27.6134
59.7219
129.117
29.2764
33.9021
92.9287
152.932
41.1789
25.2569
42.6977
92.4043
16.6361
138.796
125.329
30.6788
22.1445
82.4872
48.1148
62.6839
18.7595
10.048
12.2795
148.225
49.5944
115.536
186.674
15.8745
107.302
167.698
17.0798
167.984
44.2104
19.1507
66.8931
59.0688
122.502
56.0745
36.889
2.97661
37.0171
97.6386
49.0316
97.3562