/*--------------------------------*- C++ -*----------------------------------*\
  =========                 |
  \\      /  F ield         | OpenFOAM: The Open Source CFD Toolbox
   \\    /   O peration     | Website:  https://openfoam.org
    \\  /    A nd           | Version:  7
     \\/     M anipulation  |
\*---------------------------------------------------------------------------*/
FoamFile
{
    version     2.0;
    format      ascii;
    class       surfaceScalarField;
    location    "1";
    object      phi;
}
// * * * * * * * * * * * * * * * * * * * * * * * * * * * * * * * * * * * * * //

dimensions      [0 3 -1 0 0 0 0];

internalField   nonuniform List<scalar> 
97653
(
1.01704e-07
-1.27609e-07
2.59049e-08
-1.11347e-07
5.8078e-08
5.32693e-08
-1.11067e-07
5.80497e-08
5.30173e-08
1.03534e-07
-2.70883e-09
-1.00826e-07
-2.4254e-08
1.15136e-07
-9.08816e-08
-2.41743e-08
1.14788e-07
-9.0614e-08
6.02595e-08
5.81978e-08
-1.18457e-07
7.48598e-08
-1.03245e-07
2.83853e-08
-3.22533e-08
1.04118e-07
-7.18651e-08
-3.32872e-08
1.33508e-07
-1.00221e-07
8.37006e-08
-1.0288e-07
1.91798e-08
2.24861e-08
-1.05062e-07
8.25756e-08
-1.80486e-07
2.09296e-07
-2.88099e-08
-1.81092e-07
1.90325e-07
-9.2331e-09
-1.51144e-08
1.37645e-07
-1.2253e-07
-1.54387e-08
1.38464e-07
-1.23026e-07
-3.78672e-08
-6.1143e-08
9.90102e-08
-3.78648e-08
-6.09891e-08
9.8854e-08
-1.23876e-07
-4.76824e-08
1.71559e-07
1.01852e-07
-1.2689e-07
2.50371e-08
-6.2343e-08
1.75122e-07
-1.12779e-07
-1.19978e-07
1.08497e-07
1.1481e-08
8.59212e-08
-1.47051e-07
6.113e-08
8.65244e-08
-1.47832e-07
6.13078e-08
-1.93683e-07
6.99312e-08
1.23752e-07
-7.99741e-08
-1.13709e-07
3.11616e-08
-8.74812e-08
5.63197e-08
-5.16159e-08
-6.15897e-08
1.13206e-07
1.08379e-07
-8.80933e-08
-2.02857e-08
1.07952e-07
-8.79144e-08
-2.00378e-08
9.02205e-08
-1.25334e-08
-7.76872e-08
9.03591e-08
-1.24549e-08
-7.79041e-08
8.4729e-08
-9.03984e-10
-8.3825e-08
8.46264e-08
-8.99143e-10
-8.37273e-08
-7.70433e-08
-2.03075e-08
9.73508e-08
5.04983e-08
4.47283e-08
-9.52266e-08
-2.39305e-09
9.01778e-08
-8.77847e-08
1.73418e-07
1.5061e-09
-1.74924e-07
1.2644e-08
6.69599e-08
-7.96039e-08
-1.37082e-07
4.88214e-08
8.82609e-08
-1.36633e-07
4.87909e-08
8.78424e-08
2.3895e-08
7.85855e-08
-1.02481e-07
2.11593e-08
8.05964e-08
-1.01756e-07
-5.75923e-08
-5.45492e-08
1.12142e-07
3.23575e-08
-9.16181e-08
5.92606e-08
3.20628e-08
-9.16004e-08
5.95376e-08
-3.32084e-08
-8.11586e-08
1.14367e-07
-4.33651e-08
1.39294e-07
-9.5929e-08
-7.72399e-07
8.41906e-07
-6.95076e-08
-1.10157e-07
1.41185e-07
-3.10279e-08
-1.77129e-07
1.18371e-07
5.87587e-08
-2.58022e-07
1.78228e-07
7.97942e-08
-5.49595e-08
1.47254e-07
-9.22942e-08
-1.79501e-07
-1.44221e-07
3.23722e-07
-4.97549e-08
-7.64774e-08
1.26232e-07
-9.51404e-08
1.62306e-08
7.89097e-08
-9.53313e-08
1.62399e-08
7.90914e-08
8.1532e-08
1.0185e-07
-1.83382e-07
-2.47609e-07
3.57643e-07
-1.10034e-07
-7.33268e-08
-1.79799e-08
9.13067e-08
-7.34226e-08
-1.82159e-08
9.16385e-08
-7.34883e-08
-1.01898e-07
1.75386e-07
1.41395e-09
-1.69947e-07
1.68533e-07
-6.46785e-09
1.10607e-07
-1.04139e-07
6.94751e-08
4.9031e-08
-1.18506e-07
5.83534e-08
5.6102e-08
-1.14455e-07
-1.97777e-07
-6.02454e-08
3.07121e-08
-1.56605e-07
1.25893e-07
2.95269e-07
-1.6438e-07
-1.30889e-07
3.74142e-08
-9.5413e-08
5.79987e-08
-9.32905e-08
-8.38389e-08
-9.88062e-10
-2.30009e-07
2.30997e-07
8.89426e-08
-3.92745e-08
-4.96681e-08
8.3451e-08
-1.05745e-08
-7.28765e-08
8.34102e-08
-1.06122e-08
-7.27981e-08
-2.48687e-07
2.56753e-07
-8.06565e-09
5.2078e-08
-1.14421e-07
4.107e-08
7.7568e-08
-1.18638e-07
5.5e-08
-1.11853e-07
5.68534e-08
1.03272e-07
-8.79898e-08
-1.52817e-08
-6.79317e-08
1.31449e-07
-6.35175e-08
3.23783e-08
6.45683e-08
-9.69466e-08
3.34858e-08
6.45815e-08
-9.80673e-08
-1.34149e-07
1.56359e-08
1.18514e-07
-1.34558e-07
1.57111e-08
1.18846e-07
1.63604e-07
-1.51177e-07
-1.24273e-08
1.62998e-07
-1.50554e-07
-1.24445e-08
-1.26092e-07
9.45423e-08
-4.61575e-08
-4.83849e-08
1.12082e-07
-1.07012e-07
-5.07049e-09
1.12307e-07
-1.07179e-07
-5.12861e-09
3.06457e-08
6.7017e-08
-9.76626e-08
3.06594e-08
6.73155e-08
-9.79749e-08
1.64476e-07
8.1955e-09
-1.72672e-07
2.09874e-07
-4.66442e-08
-1.6323e-07
8.45497e-08
-2.85768e-08
-5.59728e-08
6.31893e-08
-1.63595e-07
1.00405e-07
-8.4027e-08
1.19806e-07
-3.57787e-08
-1.368e-06
2.07384e-06
-7.05845e-07
-6.53596e-08
7.62685e-08
-1.09089e-08
7.95115e-08
3.34378e-08
-1.12949e-07
7.92319e-08
3.33351e-08
-1.12567e-07
-1.31915e-07
1.21869e-07
1.00463e-08
-1.32173e-07
1.22193e-07
9.97988e-09
-1.84414e-07
1.06823e-07
7.75911e-08
-8.89539e-08
5.95828e-08
2.93712e-08
2.24881e-07
-7.51529e-08
-1.49728e-07
-1.46609e-07
1.69852e-08
1.29624e-07
2.23865e-08
-8.59584e-08
6.35719e-08
-1.66027e-06
1.99355e-06
-3.33275e-07
-1.35676e-07
4.34184e-08
9.22576e-08
6.59379e-08
8.45172e-08
-1.50455e-07
1.29368e-07
-9.23903e-08
-3.69779e-08
1.29599e-07
-9.23844e-08
-3.72151e-08
-1.22071e-07
9.57782e-09
1.12494e-07
-2.12586e-07
1.83673e-07
2.89128e-08
1.49168e-07
-8.36528e-08
-6.55153e-08
-1.19062e-07
8.43096e-09
1.10631e-07
2.95173e-08
-8.99552e-08
6.04379e-08
7.22359e-08
-1.44676e-07
7.24402e-08
2.25887e-08
-9.59155e-08
2.28162e-08
-9.62387e-08
2.24076e-08
-8.03891e-08
5.79815e-08
2.43186e-08
-7.33422e-08
4.90236e-08
8.0207e-08
-1.09958e-07
2.97513e-08
1.3679e-07
-4.73781e-08
-8.94122e-08
1.36336e-07
-4.75981e-08
-8.87382e-08
7.38399e-08
3.72245e-08
-1.11064e-07
-1.37373e-07
9.16285e-08
4.57446e-08
-1.2572e-07
9.07277e-08
3.49926e-08
3.49622e-08
8.50635e-08
-1.20026e-07
-1.13639e-07
-4.07129e-08
1.54352e-07
-2.04302e-08
-7.36504e-08
9.40806e-08
-2.03025e-08
-7.39791e-08
9.42816e-08
1.09748e-07
3.03471e-08
-1.40095e-07
-1.8743e-07
1.39403e-07
4.80265e-08
1.23243e-07
-1.62829e-07
3.95865e-08
9.79766e-08
-7.39331e-08
-2.40436e-08
9.81702e-08
-7.41209e-08
-2.40493e-08
2.34558e-08
-1.24054e-07
1.00599e-07
2.79164e-08
-1.24072e-07
9.61552e-08
-3.45083e-08
-8.33381e-08
1.17846e-07
-1.12737e-07
1.02978e-08
1.02439e-07
1.10337e-07
-4.87388e-08
-6.15979e-08
8.90722e-08
-1.01962e-07
1.28894e-08
-9.29558e-08
1.0707e-07
-1.41145e-08
-9.332e-08
1.07414e-07
-1.40938e-08
2.3781e-07
-1.25778e-07
-1.12032e-07
8.11253e-08
-6.84813e-08
4.2101e-08
-7.3406e-08
3.1305e-08
-3.16678e-07
1.74243e-08
2.99254e-07
1.41269e-07
-1.13738e-07
-2.75307e-08
1.39032e-07
-9.59225e-09
-1.2944e-07
1.37072e-07
-8.98625e-09
-1.28086e-07
-6.29469e-08
1.41145e-07
-7.81984e-08
-6.2831e-08
1.40633e-07
-7.78024e-08
1.63485e-08
-6.22807e-08
4.59321e-08
5.55531e-08
-1.21392e-07
6.58386e-08
-4.23298e-08
-5.43452e-08
9.6675e-08
-4.27543e-08
-5.44168e-08
9.7171e-08
-1.1442e-07
4.21557e-08
7.22644e-08
-4.76411e-08
8.85423e-08
-4.09012e-08
-4.77659e-08
8.88718e-08
-4.11059e-08
1.21458e-08
1.26886e-07
1.16362e-08
1.25436e-07
7.64692e-08
6.941e-09
7.65944e-08
6.85661e-09
-1.04343e-07
1.65177e-07
-6.08336e-08
-3.03246e-07
8.23161e-08
2.2093e-07
-1.80718e-07
1.13112e-07
6.76059e-08
-3.6968e-08
-3.62718e-08
7.32398e-08
-3.68263e-08
-3.6177e-08
7.30034e-08
-1.11716e-07
6.19152e-08
4.98004e-08
-1.11951e-07
6.19824e-08
4.99687e-08
-2.18288e-07
1.65465e-07
5.28233e-08
4.33581e-08
-4.57511e-08
-2.48188e-07
1.90578e-07
5.76096e-08
-5.90496e-08
1.0385e-07
-4.48005e-08
9.28923e-08
-3.87124e-09
-8.9021e-08
-1.5288e-07
1.03322e-07
4.95585e-08
-1.53475e-07
1.03726e-07
4.97498e-08
-1.1781e-07
1.09384e-07
8.42544e-09
-1.18598e-07
1.09992e-07
8.60589e-09
6.90832e-08
-9.63408e-08
2.72576e-08
-7.35876e-08
-3.0691e-08
1.04279e-07
-7.33455e-08
-3.07256e-08
1.04071e-07
-1.0012e-07
1.0735e-07
-7.22972e-09
1.00333e-07
-4.11131e-08
-5.92204e-08
1.00435e-07
-4.12063e-08
-5.92285e-08
-7.44345e-08
9.68421e-08
-7.49642e-08
9.92828e-08
4.02123e-08
6.43003e-08
-1.04513e-07
3.1099e-07
-4.19235e-07
1.08245e-07
1.64837e-07
-7.58681e-08
-8.89693e-08
-5.70532e-08
1.57597e-07
-1.00543e-07
8.20071e-08
-4.96288e-08
8.25613e-08
-4.90755e-08
-1.13537e-07
1.17013e-08
1.01836e-07
-9.31425e-08
-8.75752e-08
-2.1287e-08
1.59864e-07
-1.38577e-07
-1.94583e-07
-5.36044e-08
-2.69971e-07
9.41077e-08
1.75863e-07
-6.48225e-08
1.88065e-07
1.27679e-07
-5.48698e-08
-7.28089e-08
1.03749e-07
-9.70214e-08
-6.72755e-09
3.02334e-08
1.54697e-07
-1.84931e-07
3.35319e-08
-1.0712e-07
3.36435e-08
-1.06989e-07
1.62939e-07
-4.98275e-08
-1.13865e-07
1.41161e-07
-2.72961e-08
1.24059e-07
-5.02349e-08
-7.3824e-08
-1.21761e-07
7.23258e-08
4.94355e-08
-1.21893e-07
7.23799e-08
4.95134e-08
1.19607e-07
-1.91776e-08
-1.00429e-07
-4.81455e-08
-3.14808e-08
7.96263e-08
-4.82958e-08
-3.12047e-08
7.95005e-08
-3.40927e-08
7.61938e-08
-9.65525e-08
6.20231e-08
3.45294e-08
-9.34124e-08
3.54693e-08
5.79431e-08
-1.03873e-07
1.27329e-07
1.0293e-07
1.33972e-08
-1.16327e-07
9.48472e-08
-3.53192e-08
-5.9528e-08
9.30337e-08
2.93608e-08
-1.22395e-07
-4.06985e-08
7.13442e-08
-4.09161e-08
7.15755e-08
-6.47293e-08
-8.7265e-08
1.51994e-07
-2.4744e-08
1.01264e-07
-7.65195e-08
-2.4707e-08
1.01056e-07
-7.63489e-08
-1.11442e-07
7.09898e-09
1.11352e-09
7.37463e-08
2.96522e-08
6.53488e-08
-9.5001e-08
2.95596e-08
6.51941e-08
-9.47537e-08
1.80456e-07
-1.64775e-07
-1.56808e-08
-1.75426e-07
2.44467e-08
1.50979e-07
-5.87706e-09
1.27583e-07
-1.21706e-07
-5.59649e-09
1.27048e-07
-1.21451e-07
-5.92341e-08
7.55826e-08
1.25957e-08
-1.61063e-07
1.48468e-07
-4.59764e-08
9.92268e-08
-5.32504e-08
-4.40479e-08
1.11763e-07
-6.77146e-08
-3.63714e-08
7.93757e-08
-4.30043e-08
3.98965e-08
5.66913e-08
-9.65878e-08
2.12569e-08
-8.96692e-08
6.84122e-08
-1.19033e-07
-9.44081e-10
-2.3589e-08
-4.90133e-08
7.26023e-08
1.27696e-07
5.84041e-08
-1.861e-07
-1.09674e-07
1.1858e-07
-8.90615e-09
-1.08505e-07
1.18484e-07
-9.97872e-09
-1.14966e-07
-1.30235e-07
2.45201e-07
5.29914e-08
-1.02006e-07
4.9015e-08
1.08145e-07
-2.54072e-08
-8.27377e-08
1.08484e-07
-2.54836e-08
-8.30001e-08
1.5962e-07
-5.33343e-09
-1.54286e-07
1.59126e-07
-5.25958e-09
-1.53867e-07
-9.92797e-08
1.03818e-07
-4.538e-09
-9.93721e-08
1.03963e-07
-4.59105e-09
-9.50442e-09
-1.04361e-07
2.70263e-07
-2.64603e-07
-5.65977e-09
5.98474e-07
1.76141e-07
-7.74615e-07
-3.17656e-07
1.60649e-08
3.01591e-07
7.65816e-08
7.26923e-08
-1.49274e-07
-1.02255e-07
2.56437e-08
7.66116e-08
-2.65363e-08
-8.25356e-08
1.09072e-07
5.00334e-08
-9.02347e-08
4.02013e-08
1.1985e-07
-6.69584e-08
-5.2892e-08
1.3487e-07
-1.50407e-07
1.55368e-08
-1.40263e-06
2.14056e-06
-7.3793e-07
8.1332e-09
1.32739e-07
-1.40873e-07
1.34666e-07
-8.53445e-08
-4.93212e-08
1.3411e-07
-8.49038e-08
-4.92063e-08
-3.92244e-09
-1.12796e-07
1.16719e-07
-1.6281e-10
-1.14538e-07
1.14701e-07
5.46111e-09
8.40042e-08
-8.94653e-08
2.6106e-07
-1.62357e-07
-9.87024e-08
3.92533e-08
5.90561e-08
-9.83094e-08
9.67298e-08
-1.36796e-07
4.00667e-08
9.65306e-08
-1.36462e-07
3.99319e-08
-8.48134e-08
8.26317e-08
2.18177e-09
-1.1183e-07
5.04853e-08
6.13444e-08
-1.17079e-07
6.60366e-08
5.10423e-08
-1.20204e-07
6.83264e-08
5.18781e-08
-6.56902e-09
-6.70728e-08
7.36419e-08
-8.83961e-08
3.08038e-08
1.25339e-07
-9.66951e-08
-2.86442e-08
1.25692e-07
-9.69852e-08
-2.8707e-08
1.1068e-07
-8.67847e-08
1.10417e-07
-8.92575e-08
4.26039e-08
-8.66519e-08
-4.75465e-08
-5.25736e-08
-1.96433e-07
1.1082e-07
8.56124e-08
4.6998e-09
-7.98923e-08
7.51925e-08
4.75626e-09
-7.97309e-08
7.49747e-08
-9.95165e-08
6.48291e-08
3.46874e-08
-9.97297e-08
6.4937e-08
3.47928e-08
-1.39173e-07
-1.35187e-06
1.49104e-06
-1.01123e-07
3.00595e-08
7.10632e-08
1.03246e-07
4.96711e-08
-1.52917e-07
1.61467e-07
3.21847e-08
-1.93652e-07
-8.3612e-08
9.08195e-08
-7.20752e-09
1.0694e-07
1.8399e-08
1.07233e-07
1.8459e-08
1.81426e-07
-6.92421e-08
-1.12184e-07
1.80484e-07
-6.90806e-08
-1.11403e-07
-1.34526e-07
1.43442e-07
-8.91576e-09
-1.45062e-08
1.13396e-07
-9.88897e-08
1.3548e-07
-2.25599e-09
-1.33224e-07
2.59978e-07
-1.60872e-07
-9.91058e-08
-2.77178e-07
2.51395e-07
2.57831e-08
-1.46909e-07
5.38238e-08
9.30855e-08
-1.15864e-07
-7.1566e-08
-1.03144e-07
3.31307e-08
7.00129e-08
-1.02994e-07
3.30749e-08
6.9919e-08
1.60383e-07
4.21049e-08
-2.02488e-07
-5.87684e-08
9.11259e-08
-5.90461e-08
9.11089e-08
9.44731e-08
-1.351e-07
4.06267e-08
1.17045e-07
2.77243e-08
-1.4477e-07
-4.02241e-08
-9.71489e-08
-4.46072e-08
-8.11132e-08
-3.72819e-08
9.38706e-08
-5.65887e-08
-9.47023e-08
6.34289e-09
8.83594e-08
-1.23276e-07
-2.10944e-08
1.44371e-07
-1.2507e-07
4.32973e-08
8.17731e-08
-1.24639e-07
4.30648e-08
8.15745e-08
4.36017e-08
-8.66705e-08
4.30688e-08
4.36844e-08
-8.67408e-08
4.30564e-08
4.32034e-08
-1.02017e-07
5.88137e-08
8.33129e-10
-1.25475e-07
1.24642e-07
-1.47835e-07
9.70634e-08
5.07716e-08
-1.14706e-07
-3.63349e-07
4.78055e-07
2.11083e-07
-4.75662e-08
-1.63517e-07
-4.76391e-08
7.92274e-08
-3.15883e-08
-4.76259e-08
7.88864e-08
-3.12605e-08
-4.72057e-08
8.10928e-08
-3.3887e-08
1.12281e-06
-4.49063e-07
-6.73751e-07
1.05451e-07
-1.7664e-08
-8.77867e-08
1.0394e-07
2.87775e-08
-1.32717e-07
-5.349e-07
5.16542e-07
1.83586e-08
2.00298e-08
-9.81903e-08
7.81605e-08
1.94344e-08
-9.77325e-08
7.82982e-08
4.3358e-09
-1.05459e-07
-1.38884e-07
1.31851e-07
7.03304e-09
6.1558e-08
-1.02888e-07
4.13301e-08
-1.1608e-07
1.10798e-07
5.28157e-09
-5.19504e-08
-9.58845e-08
1.23892e-08
1.08751e-07
-1.2114e-07
8.74065e-08
-5.78893e-08
5.5456e-07
-5.16164e-07
-3.83958e-08
-1.15521e-07
1.38007e-07
4.18926e-08
-9.39763e-08
5.20837e-08
1.10487e-07
-8.88289e-08
-2.16579e-08
1.37468e-07
-5.73429e-08
-8.01249e-08
6.76882e-08
4.33848e-08
-1.11073e-07
6.79366e-08
4.38427e-08
-1.11779e-07
-2.08013e-08
7.96111e-08
-5.88098e-08
-4.17862e-07
2.45972e-07
1.7189e-07
1.15724e-07
-9.83693e-08
-1.73549e-08
1.00648e-07
-3.15081e-10
1.00778e-07
-3.4315e-10
-1.02636e-07
3.61796e-08
6.64561e-08
-1.02594e-07
3.62243e-08
6.637e-08
-4.25611e-08
7.37226e-08
6.48723e-08
5.49781e-08
-2.66363e-08
-1.33375e-07
1.60011e-07
1.0634e-07
-1.83518e-08
-8.79877e-08
9.93327e-08
-1.25045e-07
2.57125e-08
2.05241e-08
-1.03442e-07
8.29178e-08
1.45918e-07
-1.64839e-07
1.89205e-08
7.19841e-08
2.41894e-08
-9.61735e-08
7.18217e-08
2.39783e-08
-9.57999e-08
-1.41809e-08
9.6103e-08
-8.19222e-08
-1.38959e-07
1.04451e-07
-9.85036e-09
1.53291e-07
-1.43441e-07
1.74757e-07
-1.8375e-07
8.99259e-09
-9.91609e-09
1.52867e-07
-1.42951e-07
3.28813e-08
-1.00338e-07
6.74568e-08
-1.12182e-07
4.03325e-08
7.18495e-08
-1.1244e-07
4.038e-08
7.20596e-08
9.34992e-08
-1.32921e-08
-4.17093e-08
1.08218e-07
-6.65087e-08
-1.71817e-07
4.13653e-08
1.30452e-07
-9.9627e-08
6.17621e-08
-9.96874e-08
6.18202e-08
2.92432e-08
-9.20274e-08
6.27842e-08
2.92752e-08
-9.22687e-08
6.29935e-08
-1.78058e-07
7.8765e-08
9.92931e-08
5.58749e-08
5.52865e-08
-1.11161e-07
5.58737e-08
5.54551e-08
-1.11329e-07
-2.7333e-08
1.08642e-07
-8.13089e-08
-2.73208e-08
1.08291e-07
-8.09699e-08
1.41008e-07
-3.7474e-08
4.39746e-08
5.6772e-08
-1.00747e-07
4.3693e-08
5.65582e-08
-1.00251e-07
1.59938e-07
-1.25939e-07
-3.39995e-08
2.11297e-08
1.15661e-07
2.13896e-08
1.14947e-07
9.5831e-08
2.05207e-09
-9.7883e-08
1.5651e-07
-3.50275e-07
1.93765e-07
1.29126e-07
-2.42637e-07
1.13511e-07
-1.78687e-07
6.46527e-08
1.14034e-07
1.83876e-07
-1.70569e-07
-1.33076e-08
-6.02686e-08
-3.04494e-08
9.0718e-08
1.91156e-07
-1.05062e-07
-8.60944e-08
1.56468e-07
-1.43041e-07
-1.3427e-08
-1.76465e-07
1.40359e-07
3.6106e-08
9.84309e-08
-2.7323e-08
-7.1108e-08
1.23732e-07
-6.06436e-08
-6.30886e-08
-8.05271e-08
-1.03887e-07
1.47907e-07
-5.0074e-08
-9.78327e-08
1.4856e-07
-5.01723e-08
-9.83879e-08
-7.9386e-08
6.22533e-09
7.31606e-08
1.16788e-07
-4.73125e-08
-4.00814e-08
-6.25543e-08
-3.99664e-08
-6.26279e-08
-8.49555e-08
-1.0251e-08
9.52065e-08
-8.41632e-08
-1.0062e-08
9.42251e-08
-2.30063e-09
-9.06552e-08
-2.34715e-09
-9.09729e-08
-4.22904e-08
1.97517e-07
-1.55226e-07
1.53626e-07
-8.57295e-08
-6.78968e-08
1.52186e-07
-8.45474e-08
-6.76388e-08
7.42077e-07
-6.30309e-07
-1.11768e-07
1.03222e-07
4.15236e-08
-1.44746e-07
-1.26208e-07
4.54497e-08
8.07583e-08
7.59514e-08
1.06291e-08
-8.65805e-08
1.54046e-07
-2.00067e-07
4.60205e-08
1.03668e-07
3.19462e-08
-1.35614e-07
-3.30716e-08
1.69235e-07
-1.36164e-07
-7.31551e-08
1.04597e-07
-3.14422e-08
-2.30705e-07
8.89165e-07
-6.58459e-07
-1.68832e-07
8.03561e-08
8.84754e-08
-5.28015e-08
1.13061e-07
1.02375e-07
-8.75841e-08
-1.47906e-08
7.55566e-08
-1.16922e-07
4.13652e-08
4.32857e-08
3.98597e-08
-8.31454e-08
4.26005e-08
4.02913e-08
-8.28918e-08
1.12617e-07
-4.381e-08
-6.88071e-08
-1.83404e-09
9.63764e-08
-5.11457e-08
-4.90075e-08
1.00153e-07
-5.11585e-08
-4.8682e-08
9.98405e-08
1.76361e-07
-1.95787e-07
1.94266e-08
1.74741e-07
-1.45358e-07
-2.9383e-08
-3.8207e-08
1.25833e-07
-8.76261e-08
-1.9543e-07
3.51941e-07
1.39782e-07
-1.61069e-07
1.28699e-07
-5.91126e-08
-6.9586e-08
1.66403e-07
-1.12286e-07
-5.41179e-08
3.60381e-08
9.50371e-08
-1.31075e-07
3.60416e-08
9.48371e-08
-1.30879e-07
1.24699e-07
-7.97949e-08
-4.49037e-08
-9.77211e-08
8.82706e-08
9.45046e-09
3.42556e-08
-9.6935e-08
6.26793e-08
3.40725e-08
-9.65744e-08
6.2502e-08
-7.39521e-08
3.69841e-08
-7.37611e-08
3.69348e-08
-3.07489e-09
-1.00699e-07
1.03774e-07
1.61523e-08
-8.74195e-08
7.12672e-08
1.60949e-08
-8.70985e-08
7.10035e-08
-4.62131e-08
-5.88487e-08
8.67845e-09
-7.47035e-08
6.6025e-08
1.16088e-07
-6.05353e-08
-2.06086e-07
2.01174e-07
4.91185e-09
-4.12802e-07
1.54663e-07
2.5814e-07
1.05222e-07
-1.52745e-07
4.75233e-08
1.30511e-07
-1.09042e-08
-1.36868e-07
7.85321e-08
5.83362e-08
1.03992e-07
-3.81421e-08
-6.58494e-08
1.04063e-07
-3.79865e-08
-6.60767e-08
1.33637e-07
-6.43639e-08
-6.9273e-08
1.03244e-07
5.03821e-08
1.02227e-07
4.99592e-08
5.14646e-08
7.79036e-08
5.14341e-08
7.81654e-08
9.92679e-08
9.08169e-09
-1.0835e-07
-3.66701e-08
1.19785e-07
-8.31152e-08
-9.23863e-08
-4.31936e-08
1.3558e-07
-9.22436e-08
-4.3069e-08
1.35313e-07
1.29073e-07
-5.28706e-09
-1.23786e-07
1.28455e-07
-5.35801e-09
-1.23097e-07
-1.06371e-07
8.16273e-08
-1.06138e-07
8.14312e-08
8.11146e-08
5.29955e-08
8.14713e-08
5.31944e-08
-9.85781e-07
-6.74493e-07
-9.33553e-08
8.98272e-08
3.52811e-09
5.03855e-08
-1.19035e-07
6.86497e-08
5.03102e-08
-1.18498e-07
6.81876e-08
-1.49267e-07
9.35409e-08
5.57257e-08
-1.4989e-07
9.38987e-08
5.5991e-08
1.11753e-07
-8.52231e-08
-2.65297e-08
1.66734e-07
-3.14263e-08
-1.35308e-07
1.03501e-07
-6.90852e-08
-3.44161e-08
1.03285e-07
-6.90452e-08
-3.42397e-08
-1.2827e-08
1.17957e-07
-1.0513e-07
1.98985e-07
-1.46907e-07
-6.03406e-08
-1.49145e-07
2.09485e-07
1.01215e-07
4.79533e-08
-1.85536e-06
6.19057e-07
1.23631e-06
-7.24605e-08
-3.03253e-08
1.02786e-07
-1.01728e-08
-8.26905e-08
9.28633e-08
-6.86778e-09
9.594e-08
7.79256e-08
-2.7421e-08
-5.05046e-08
-8.1987e-08
1.26098e-07
-4.41114e-08
-8.22835e-08
1.26566e-07
-4.42827e-08
1.64219e-07
-2.08961e-08
-1.43323e-07
1.69639e-07
6.81717e-08
-9.7684e-08
7.0351e-08
-9.74594e-08
7.01385e-08
1.13341e-06
-5.02627e-07
-6.30778e-07
-9.09374e-07
9.09374e-07
-5.25802e-08
1.53822e-07
-1.01241e-07
-5.2357e-08
1.53315e-07
-1.00958e-07
-9.90835e-08
6.44346e-08
3.46489e-08
8.21426e-07
-7.0925e-07
-1.12176e-07
-1.54679e-07
1.62684e-07
-8.00447e-09
-1.53932e-07
1.61864e-07
-7.93203e-09
-9.72266e-07
1.41353e-06
-4.41267e-07
5.57748e-09
9.11523e-08
5.60529e-09
9.09253e-08
9.01353e-08
-4.01019e-08
1.58349e-07
1.06718e-08
-1.6902e-07
6.67695e-08
5.1703e-09
-7.19398e-08
8.65244e-08
-8.65244e-08
8.66848e-08
-8.66848e-08
3.27785e-07
-2.1028e-07
-1.17505e-07
-2.69038e-07
8.95369e-08
1.8107e-07
-1.66106e-07
-1.49642e-08
1.30138e-07
2.14158e-08
-1.51554e-07
9.27816e-08
4.84869e-08
-1.13486e-07
5.94331e-08
5.40534e-08
1.83589e-07
-1.68548e-08
-3.8279e-08
-9.42258e-08
1.32505e-07
-4.29349e-08
1.00993e-07
-5.80583e-08
-4.33508e-08
1.02304e-07
-5.8953e-08
9.86047e-08
2.95935e-08
-1.28198e-07
9.86998e-08
2.96596e-08
-1.28359e-07
-3.40316e-08
-6.25208e-08
-8.81056e-08
1.3468e-07
-4.65744e-08
-1.93217e-07
-8.39613e-08
-5.42812e-08
1.01905e-07
-4.76234e-08
5.32044e-08
-9.01386e-08
3.69342e-08
1.07472e-07
-7.30855e-08
-3.43867e-08
9.6852e-08
-5.69554e-08
1.31595e-07
-1.09934e-07
-2.16617e-08
9.59972e-09
-9.06607e-08
8.1061e-08
-1.91677e-08
1.12201e-07
-6.83564e-08
8.83862e-08
-6.8636e-08
8.80704e-08
5.38094e-08
-9.20164e-08
2.09274e-08
-7.65408e-08
5.56134e-08
-5.50711e-09
9.36131e-08
-8.8106e-08
-1.28967e-07
1.11417e-07
1.75502e-08
-1.2849e-07
1.1101e-07
1.74808e-08
-1.62815e-07
7.07986e-08
9.20161e-08
-1.08233e-07
1.0653e-07
1.70355e-09
-1.08344e-07
1.06496e-07
1.84774e-09
1.7946e-07
-1.52402e-08
-1.43611e-07
1.17075e-07
-3.61864e-08
-4.98614e-08
8.60479e-08
-6.1116e-08
-1.47688e-07
2.08804e-07
-5.07733e-08
-1.21044e-07
2.4297e-08
-9.67575e-08
2.09368e-07
5.05534e-10
-2.65847e-07
-1.10215e-06
-1.23477e-07
1.62134e-08
1.07264e-07
1.14273e-07
-3.57964e-08
-7.84768e-08
-7.8117e-09
-9.83187e-08
1.0613e-07
-3.93107e-08
-8.53285e-08
-3.96403e-08
-8.54301e-08
1.01665e-07
-1.65371e-07
6.37066e-08
1.00969e-07
-1.64609e-07
6.364e-08
-1.65104e-07
3.05778e-08
1.11925e-07
-2.94338e-09
-1.08981e-07
-1.67738e-07
3.13339e-08
1.36405e-07
-1.66706e-07
3.11565e-08
1.35549e-07
1.62925e-08
-1.09943e-07
9.36505e-08
4.11086e-07
-6.92186e-07
2.811e-07
1.95991e-08
1.40021e-07
1.94931e-08
1.39633e-07
-1.15604e-07
9.00307e-08
2.55735e-08
3.46249e-08
-7.08114e-08
-2.22972e-08
1.01809e-07
-2.22295e-08
1.01461e-07
-1.19395e-07
-1.95691e-08
1.38964e-07
1.54107e-07
-1.36153e-07
-1.79534e-08
-5.49539e-08
-6.11261e-08
2.02245e-08
7.478e-08
-9.50045e-08
2.02646e-08
7.48522e-08
-9.51168e-08
3.34431e-08
8.47127e-08
-1.18156e-07
-5.66211e-07
-8.8979e-07
1.456e-06
-1.806e-07
1.36368e-07
4.42321e-08
-1.00789e-07
-1.09657e-07
2.10446e-07
1.07622e-07
-1.02593e-07
-5.02889e-09
4.80032e-08
-1.01781e-07
5.37775e-08
4.8099e-08
-1.02003e-07
5.39036e-08
7.71275e-08
-1.77359e-07
1.00231e-07
9.49303e-08
-6.2049e-08
1.02032e-06
8.37242e-07
-1.85756e-06
-9.33941e-08
9.34111e-08
-1.7035e-11
-9.29996e-08
9.30363e-08
-3.66699e-11
4.90989e-08
5.0169e-08
6.30582e-10
8.93405e-08
-8.9971e-08
-2.13054e-07
2.45104e-08
1.88543e-07
-7.99668e-08
-2.30083e-08
1.02975e-07
4.79132e-08
-1.04886e-07
5.69726e-08
4.79996e-08
-1.04741e-07
5.67418e-08
-1.27688e-07
8.43232e-08
-1.29084e-07
8.35907e-08
4.54934e-08
-1.289e-07
8.35121e-08
4.53875e-08
9.54028e-08
-1.08437e-07
1.30346e-08
7.69048e-09
8.32987e-08
-9.09892e-08
7.5009e-09
8.29223e-08
-9.04232e-08
9.6619e-08
-1.04797e-07
8.17797e-09
-1.35245e-07
-1.10717e-07
2.45962e-07
8.21462e-08
-1.40757e-07
5.86112e-08
8.74225e-08
-1.35947e-07
4.85248e-08
5.96655e-08
-1.11438e-07
5.17723e-08
-1.4379e-07
1.22587e-07
2.12034e-08
-1.44579e-07
1.23242e-07
2.13372e-08
-1.58044e-07
8.45559e-08
-7.67508e-08
9.29831e-09
6.74525e-08
-7.63256e-08
9.32836e-09
6.69972e-08
1.04946e-08
9.32543e-08
1.14032e-07
8.28709e-08
-1.96902e-07
-8.29193e-08
-3.04691e-08
1.13388e-07
-8.30734e-08
-3.05394e-08
1.13613e-07
-9.66806e-08
1.26535e-08
-8.33449e-07
2.91417e-07
5.42032e-07
-5.93465e-08
1.02632e-07
-5.9507e-08
1.02108e-07
-1.11261e-08
1.72594e-07
-2.15193e-09
5.73503e-08
-5.51983e-08
1.27114e-07
-7.02965e-09
-1.20084e-07
1.26262e-07
-2.69289e-08
1.70227e-07
-1.17323e-07
-5.29041e-08
1.69067e-07
-1.16898e-07
-5.21695e-08
9.7653e-08
-5.65497e-08
-4.11032e-08
8.20902e-08
-3.07105e-08
-5.13796e-08
8.24248e-08
-3.09309e-08
-5.14939e-08
-1.47388e-07
1.062e-07
4.11876e-08
-1.03341e-07
5.87341e-08
-9.88e-08
5.85758e-08
9.83752e-08
7.64277e-08
-1.74803e-07
6.57381e-08
3.71129e-08
-1.02851e-07
-6.49362e-08
1.15341e-07
-5.04044e-08
-6.48158e-08
1.15159e-07
-5.0343e-08
9.61923e-08
-1.06517e-07
1.03244e-08
1.39666e-07
-1.00274e-07
-3.93923e-08
-9.15521e-08
-4.96878e-08
1.4124e-07
1.10818e-07
-1.55181e-07
4.43627e-08
1.10142e-07
-1.54283e-07
4.41411e-08
-2.00172e-07
3.13407e-08
5.00662e-08
-9.07139e-08
4.06477e-08
2.3729e-08
6.08207e-08
8.38996e-08
-2.76414e-09
-8.11355e-08
-3.87869e-07
7.98147e-07
-4.10279e-07
-1.92063e-08
-9.10446e-08
1.10251e-07
-1.91985e-08
-9.13607e-08
1.10559e-07
-6.14687e-08
-8.77979e-08
-6.18296e-08
-8.80601e-08
9.46054e-08
1.57313e-08
1.32963e-07
-1.43473e-07
1.05096e-08
5.00943e-08
1.0977e-07
-3.58775e-08
9.64105e-08
-6.0533e-08
-3.59345e-08
9.66672e-08
-6.07327e-08
-5.96645e-08
-4.48629e-08
1.04527e-07
-5.95227e-08
-4.48426e-08
1.04365e-07
1.34619e-07
-1.27894e-07
-6.72427e-09
8.27507e-08
-2.54646e-08
-6.1425e-08
8.68896e-08
-2.46324e-08
-6.17315e-08
8.6364e-08
-6.61517e-08
2.62208e-07
-1.96056e-07
-2.13535e-07
2.53487e-08
1.88187e-07
4.79263e-08
3.30363e-08
7.08248e-08
1.44774e-08
-8.53022e-08
9.92602e-08
-1.8164e-07
8.23798e-08
-9.82575e-08
-2.90909e-08
1.27348e-07
-1.99182e-07
1.05903e-07
9.32795e-08
8.71593e-08
-8.20912e-08
-5.06818e-09
-1.34216e-06
1.98565e-06
-6.43492e-07
1.18083e-07
5.66585e-08
-2.61484e-07
7.00562e-07
-4.39078e-07
-4.33817e-07
1.45413e-06
1.01778e-07
8.80638e-08
-1.89842e-07
4.37023e-08
1.20774e-07
-3.84357e-08
8.85019e-08
8.91801e-08
-7.28877e-08
4.41198e-08
-1.51139e-07
1.07019e-07
4.42862e-08
-1.51714e-07
1.07427e-07
-7.18533e-08
6.97014e-08
-8.22369e-08
1.89071e-08
6.33298e-08
-6.25669e-08
-2.56139e-08
8.81808e-08
1.192e-08
-1.11292e-07
1.18731e-08
-1.11153e-07
6.25566e-08
5.72492e-08
1.5877e-08
8.64976e-08
-9.75512e-08
6.68256e-08
-9.76578e-08
6.69667e-08
8.49845e-08
2.76326e-08
-8.05876e-08
3.33818e-08
1.10535e-07
-7.72503e-08
-3.3285e-08
1.10459e-07
-7.71074e-08
-3.33512e-08
5.59053e-08
3.25288e-08
-8.84341e-08
-1.51051e-08
8.95229e-08
-7.44179e-08
-2.64843e-08
-6.35724e-08
9.00567e-08
-2.0672e-07
-4.19675e-08
-1.2564e-07
1.11459e-07
6.33279e-08
-8.41292e-08
2.49986e-07
8.72524e-08
-3.37239e-07
-2.50165e-08
-1.09133e-07
-2.51439e-08
-1.09414e-07
-5.58525e-08
-4.22801e-08
9.81325e-08
-8.20244e-08
9.16241e-08
7.72288e-08
3.02435e-08
-8.86479e-08
-2.69563e-08
-5.09282e-08
1.32573e-07
-8.1645e-08
1.53962e-07
-4.9896e-09
-1.48973e-07
-1.36363e-08
8.27195e-08
-6.56288e-08
1.07146e-07
-4.15173e-08
-6.51928e-08
1.066e-07
-4.1407e-08
9.27167e-09
-1.09606e-07
1.00334e-07
1.02226e-08
-1.09525e-07
9.93019e-08
-5.02104e-08
-3.95708e-08
8.97812e-08
-5.02114e-08
-3.98041e-08
9.00155e-08
2.69184e-07
-2.46337e-08
-2.4455e-07
-9.978e-08
1.16503e-07
-1.67233e-08
-9.97414e-08
1.16357e-07
-1.66153e-08
1.36917e-07
6.51454e-09
-1.43432e-07
-3.99038e-08
-3.63836e-08
7.62874e-08
1.30207e-07
-3.41038e-08
7.79216e-08
-8.50906e-08
7.16903e-09
7.81232e-08
-8.53135e-08
7.19031e-09
4.16852e-08
-8.71864e-08
4.55011e-08
1.55742e-07
-2.86281e-08
1.01933e-07
-4.5851e-09
-9.73481e-08
1.02104e-07
-4.62221e-09
-9.74814e-08
-3.11289e-08
7.57721e-08
-4.46432e-08
5.37972e-08
2.7517e-08
-8.13142e-08
5.41812e-08
2.74046e-08
-8.15859e-08
7.95807e-08
2.70429e-08
-1.06624e-07
7.96328e-08
2.69671e-08
-1.066e-07
-1.38865e-08
7.2114e-08
-5.82275e-08
-1.3936e-08
7.23545e-08
-5.84185e-08
6.70254e-08
-1.52401e-07
8.53761e-08
1.44479e-07
-4.69689e-09
1.45073e-07
-2.00192e-07
5.51183e-08
3.34252e-09
9.14921e-08
-9.48346e-08
5.16236e-07
8.69706e-08
-6.03207e-07
6.81685e-08
3.85365e-08
-1.06705e-07
-1.17726e-07
9.46659e-08
2.30604e-08
-1.1729e-07
9.43161e-08
2.2974e-08
4.97312e-08
1.82843e-08
-6.80155e-08
1.61692e-07
-1.49439e-07
-1.22536e-08
9.04984e-08
-7.01475e-08
-2.03509e-08
9.06495e-08
-7.0294e-08
-2.03555e-08
5.94358e-08
-1.03431e-07
4.39951e-08
-1.20526e-09
8.07859e-08
-1.33784e-09
8.09706e-08
1.2159e-07
-9.36732e-08
-1.56062e-07
9.90091e-08
-8.89897e-08
-1.18448e-08
1.00834e-07
-8.88144e-08
-1.18203e-08
1.00635e-07
1.86968e-07
-9.61698e-08
-9.07986e-08
6.94402e-07
-2.36653e-07
-4.57749e-07
1.54729e-07
-1.1335e-07
-4.13786e-08
1.34608e-07
-1.22219e-07
-3.1718e-08
1.27428e-07
-9.57102e-08
-1.3452e-08
-8.69844e-08
1.00436e-07
-1.32228e-08
-8.71228e-08
1.00346e-07
-1.14447e-07
-3.84336e-08
-1.14845e-07
-3.863e-08
7.8012e-09
-8.7768e-08
8.65365e-08
-7.30561e-08
-1.34803e-08
1.70174e-07
-9.31056e-08
-7.70679e-08
5.85381e-08
7.30573e-08
-1.94265e-08
8.97115e-08
-7.0285e-08
-1.94101e-08
9.00159e-08
-7.06058e-08
1.40928e-07
-1.94429e-08
-1.21485e-07
-1.46846e-07
-1.59693e-08
9.68042e-09
1.04196e-07
-1.13876e-07
6.77273e-09
1.07219e-07
-1.13992e-07
-2.29195e-08
-1.00992e-07
1.23911e-07
-2.2804e-08
-1.00592e-07
1.23396e-07
-6.30296e-09
7.74598e-08
-7.11569e-08
1.75602e-07
-2.14952e-08
1.05446e-07
-1.25534e-08
1.11487e-07
-1.02234e-07
-9.25323e-09
1.11318e-07
-1.02007e-07
-9.31101e-09
-1.20133e-07
1.74288e-07
-5.41543e-08
1.37616e-07
-1.36002e-07
-1.61394e-09
1.3783e-07
-1.36948e-07
-8.82409e-10
8.99623e-08
-2.31697e-07
1.41735e-07
1.29602e-07
-7.45486e-08
-5.50532e-08
-1.71589e-07
-9.83814e-08
-1.01546e-07
-2.50905e-09
1.04055e-07
4.71326e-08
6.82524e-08
-1.15385e-07
-1.05211e-07
1.21341e-07
-1.613e-08
9.10351e-08
2.07177e-08
-1.03217e-07
9.88139e-09
9.33357e-08
1.21508e-07
-5.59866e-08
-6.55215e-08
1.21673e-07
-5.60289e-08
-6.56441e-08
-1.01507e-08
9.49164e-08
-8.47657e-08
1.08111e-08
-9.50685e-08
8.42574e-08
9.44302e-08
4.38051e-08
-1.38235e-07
9.39993e-08
4.36054e-08
-1.37605e-07
2.91607e-09
-1.31883e-07
3.03356e-09
-1.31524e-07
5.41238e-08
1.57672e-08
-6.9891e-08
3.36792e-08
-1.68757e-07
1.35078e-07
1.5303e-07
-1.52197e-07
-5.07372e-08
8.48097e-08
-5.09041e-08
8.51597e-08
-6.85278e-08
1.09951e-06
-1.03099e-06
-8.27853e-08
-7.35754e-08
1.56361e-07
-8.2735e-08
-7.28788e-08
1.55614e-07
-2.82592e-08
-6.42125e-08
9.24718e-08
9.00287e-08
1.39629e-08
9.03176e-08
1.37456e-08
-1.96279e-06
1.06847e-06
8.94328e-07
-3.34542e-08
-1.21225e-07
-3.34536e-08
-1.20479e-07
-5.15583e-08
-2.3362e-08
7.49203e-08
-1.35115e-07
8.39698e-08
-1.34802e-07
8.36438e-08
-4.07381e-08
-8.73803e-08
1.28118e-07
2.3113e-08
-2.69146e-07
2.46033e-07
1.68525e-07
-4.01723e-08
-1.28353e-07
-1.16708e-07
7.96655e-08
3.70428e-08
-5.48859e-08
-2.10451e-08
7.5931e-08
-5.49438e-08
-2.08221e-08
7.57659e-08
-2.19741e-08
1.56593e-07
6.72456e-08
1.6455e-08
9.77096e-08
-7.65973e-08
-2.11123e-08
-1.08843e-07
-1.21546e-10
1.08965e-07
3.05023e-08
1.44255e-07
1.18456e-07
-1.41032e-09
9.68402e-08
-3.52822e-08
7.9982e-08
6.77795e-08
-1.47761e-07
-1.65193e-09
1.00083e-07
-1.18807e-07
-1.10925e-08
1.29899e-07
8.62652e-08
-1.26082e-07
3.9817e-08
8.68102e-08
-1.26802e-07
3.99917e-08
-1.09381e-07
8.5127e-08
-1.09029e-07
8.48543e-08
8.51845e-08
1.01784e-07
-1.19808e-07
-1.06488e-08
1.30457e-07
-1.52836e-07
2.60948e-08
1.26741e-07
-1.51842e-07
2.6216e-08
1.25626e-07
-7.93246e-08
8.80031e-08
-4.75284e-08
-5.74895e-08
1.05018e-07
-4.76268e-08
-5.79101e-08
1.05537e-07
5.20682e-08
3.55253e-08
1.35156e-07
-5.30098e-08
8.22762e-08
-1.70447e-07
8.81708e-08
7.6741e-08
-8.68917e-08
-1.02119e-07
5.19088e-08
-1.02357e-07
5.21455e-08
-1.99937e-07
9.84302e-08
1.01507e-07