/*--------------------------------*- C++ -*----------------------------------*\
  =========                 |
  \\      /  F ield         | OpenFOAM: The Open Source CFD Toolbox
   \\    /   O peration     | Website:  https://openfoam.org
    \\  /    A nd           | Version:  7
     \\/     M anipulation  |
\*---------------------------------------------------------------------------*/
FoamFile
{
    version     2.0;
    format      ascii;
    class       volVectorField;
    location    "1";
    object      U;
}
// * * * * * * * * * * * * * * * * * * * * * * * * * * * * * * * * * * * * * //

dimensions      [0 1 -1 0 0 0 0];

internalField   nonuniform List<vector> 
65364
(
(0.241625 -0.0081803 0)
(0.252358 0.0519824 -5.10396e-19)
(0.251818 -0.0519059 2.2523e-19)
(0.271388 -0.021959 -1.05935e-19)
(0.243588 0.26425 0)
(0.24316 -0.263331 0)
(0.206954 0.0241756 1.23079e-18)
(0.215241 0.0168409 -9.90228e-21)
(0.234154 -0.0163378 0)
(0.21659 0.00961386 -3.38316e-19)
(0.221614 0.00195935 -4.83519e-20)
(0.225327 0.023529 0)
(0.312369 -0.144773 2.24104e-18)
(0.250145 0.0159932 0)
(0.249083 -0.244077 5.7415e-22)
(0.250768 0.245778 -2.28888e-21)
(0.234422 0.0362959 6.72072e-19)
(0.234754 -0.0366735 -3.00911e-19)
(0.274532 0.032612 -2.0286e-19)
(0.235353 0.0107646 4.64964e-19)
(0.296842 -0.199545 4.70369e-19)
(0.241246 0.00228168 5.77241e-19)
(0.247935 -0.200372 4.48486e-19)
(0.249201 0.201337 -6.42778e-19)
(0.236009 -0.0929823 0)
(0.24624 -0.0929571 1.46884e-18)
(0.201061 -1.88134e-05 -1.50373e-19)
(0.214495 0.000960096 0)
(0.254029 0.0806992 0)
(0.253035 -0.0806626 0)
(0.204337 0.00593402 6.58537e-20)
(0.204713 -0.00598683 -1.0521e-19)
(0.250983 0.0320402 4.80952e-19)
(0.250713 -0.0318773 -3.21855e-19)
(0.212444 -0.00439106 0)
(0.22302 -0.00468688 7.01772e-20)
(0.236864 -0.00806177 -9.20787e-20)
(0.217999 0.114219 0)
(0.250472 0.0112097 3.46937e-19)
(0.254303 0.203254 -1.43502e-18)
(0.253334 -0.202328 8.77741e-19)
(0.260494 -0.0608741 0)
(0.262572 0.0566849 0)
(0.232202 -0.00148841 1.06791e-19)
(0.223814 -0.0206131 -5.56754e-19)
(0.224042 0.0215513 2.27629e-19)
(0.238209 -0.0282691 -2.2892e-19)
(0.242304 0.0522776 0)
(0.567198 -0.255784 0)
(0.251406 0.0559766 0)
(0.266026 -0.0964684 0)
(0.26615 0.188749 -2.28204e-18)
(0.236537 0.0109605 -6.75707e-19)
(0.315143 0.279937 1.19328e-18)
(0.238927 0.0172592 -8.21409e-21)
(0.251888 -0.0402364 1.59636e-19)
(0.252296 0.0400358 -3.51514e-19)
(0.315623 -0.114731 1.03941e-18)
(0.252705 0.543607 1.12731e-18)
(0.279586 -0.0849324 -6.51925e-19)
(0.281256 0.0847824 1.18864e-18)
(0.234111 -0.00910676 -1.57965e-18)
(0.276044 -0.0255404 -1.88452e-18)
(0.251002 -0.0213692 4.14228e-19)
(0.247895 0.000670213 -2.09628e-19)
(0.20075 -0.0446051 -4.04203e-19)
(0.290056 0.177256 2.02859e-18)
(0.250771 0.00382896 0)
(0.335827 0.256562 1.76269e-18)
(0.255916 0.0128088 0)
(0.251919 -0.09099 0)
(0.360825 0.133798 -1.2772e-20)
(0.213707 -0.000908904 -1.69752e-19)
(0.26065 0.0178955 1.25518e-19)
(0.260661 -0.0179059 -6.00813e-20)
(0.340889 0.266264 -1.06424e-18)
(0.300394 -0.19436 -5.67905e-19)
(0.26901 0.00706421 0)
(0.258838 0.00722194 -9.6944e-19)
(0.209587 0.0146108 0)
(0.228918 0.0347868 -1.41814e-18)
(0.23926 -0.00446299 -6.70203e-20)
(0.239751 0.00619448 1.39713e-19)
(0.254646 -0.16137 -7.94039e-19)
(0.255384 0.16201 1.36097e-18)
(0.247383 0.249053 0)
(0.246382 -0.247592 0)
(0.265064 0.0334691 1.08886e-20)
(0.249434 -0.016766 0)
(0.27793 -0.0901006 -4.14963e-20)
(0.278616 0.0900962 8.443e-20)
(0.240512 -0.0236706 5.04183e-20)
(0.240286 0.0235659 -8.19519e-20)
(0.293516 0.145066 0)
(0.286565 0.0152454 -1.9836e-18)
(0.235315 0.00257367 6.48815e-20)
(0.222216 -0.0108576 1.39165e-18)
(0.211688 0.00726694 1.27741e-19)
(0.501482 0.00387266 -1.47312e-17)
(0.263593 0.0185862 5.9989e-20)
(0.257981 0.123378 3.89899e-19)
(0.256927 -0.122989 -2.14382e-19)
(0.231617 -0.304929 -9.52282e-19)
(0.232165 0.306209 1.3161e-18)
(0.264778 -0.0893374 1.26052e-18)
(0.248518 0.00262889 7.37905e-20)
(0.271896 -0.00227518 -9.49574e-19)
(0.216141 0.0159231 -8.0238e-19)
(0.209652 -0.0236539 0)
(0.498614 0.000340049 -4.80915e-17)
(0.263056 -0.0173912 4.68515e-19)
(0.257976 0.0802205 0)
(0.250052 -0.0389479 -3.20141e-19)
(0.250556 0.0388731 7.58137e-19)
(0.254751 0.0416587 -1.07179e-18)
(0.265379 -0.0165179 -1.28008e-18)
(0.231871 -0.0677389 0)
(0.246764 -0.035295 6.01728e-19)
(0.218155 0.0162428 -2.65269e-19)
(0.227949 0.0696179 0)
(0.271336 -0.0866565 1.63896e-19)
(0.272648 0.0862587 -3.0885e-19)
(0.195698 0.00505444 -3.09589e-21)
(0.203382 -0.00653573 -3.00529e-20)
(0.220677 -0.002649 0)
(0.27631 0.063528 -1.10024e-18)
(0.275147 -0.0637685 6.11134e-19)
(0.226586 0.0329806 4.17238e-19)
(0.244298 0.0365117 -5.13675e-19)
(0.249152 -0.055033 5.8321e-19)
(0.217914 -0.0488339 -4.47642e-19)
(0.267153 -0.0327205 0)
(0.249123 -0.00347548 0)
(0.249305 0.00414919 0)
(0.243761 0.0127409 0)
(0.231298 0.0984722 0)
(0.243373 -0.112702 8.29735e-19)
(0.266181 -0.0471511 0)
(0.266767 0.0474497 1.32684e-19)
(0.240599 0.0224757 0)
(0.209863 -0.000969591 -3.6533e-19)
(0.19749 -0.0655051 -2.09901e-20)
(0.251397 -0.00948129 -2.56138e-19)
(0.232843 -0.0161114 1.01747e-20)
(0.241133 -0.000856524 -4.51038e-19)
(0.252331 -0.113188 0)
(0.253263 0.11319 0)
(0.321426 -0.0240637 -8.41842e-19)
(0.254504 0.0246093 3.5205e-19)
(0.202942 0.0117113 4.67e-20)
(0.224158 0.483111 3.05261e-19)
(0.268486 -0.00900521 0)
(0.245228 0.127531 0)
(0.241163 -0.12599 0)
(0.261225 0.0952657 0)
(0.260595 -0.0948142 0)
(0.193121 -0.00634585 1.48585e-20)
(0.215835 0.0443725 9.10878e-19)
(0.262528 -0.174033 -4.21593e-19)
(0.263584 0.175017 1.99142e-18)
(0.21707 -0.0415214 -4.10084e-19)
(0.241517 -0.00780917 -5.83535e-21)
(0.242858 0.00706482 6.80759e-21)
(0.273928 0.133009 5.74259e-19)
(0.270247 -0.132598 0)
(0.235262 -0.018372 8.20904e-21)
(0.235508 0.0183215 -1.7164e-20)
(0.236952 -0.0597989 1.24919e-18)
(0.289606 0.372475 0)
(0.269727 -0.085082 0)
(0.243921 0.00185341 4.77687e-20)
(0.24319 -0.00202801 -2.47801e-20)
(0.243554 -0.0330236 -4.12327e-19)
(0.244135 0.0331292 9.28786e-19)
(0.279779 0.17344 0)
(0.21879 -0.00226426 0)
(0.314144 -0.067462 1.81486e-18)
(0.197373 0.00715445 0)
(0.256807 -0.0246937 3.83624e-19)
(0.258319 -0.180808 7.77608e-19)
(0.259188 0.18158 0)
(0.257068 -0.154688 0)
(0.258214 0.15548 7.92905e-19)
(0.221353 -0.00753384 0)
(0.225951 0.0148124 1.98316e-19)
(0.225459 -0.0144677 -9.64941e-20)
(0.242571 0.0101436 0)
(0.267224 -0.0239818 1.57856e-19)
(0.267515 0.0240857 -3.31281e-19)
(0.229309 0.0414513 0)
(0.245057 -0.0407671 0)
(0.203997 0.00795305 2.44531e-19)
(0.366116 0.155984 3.95014e-18)
(0.246273 -0.123668 -1.86255e-19)
(0.240251 0.126181 1.29011e-18)
(0.239656 -0.0121801 2.57984e-20)
(0.241194 0.0149656 -2.19259e-19)
(0.224571 -0.0203891 4.29589e-20)
(0.28052 -0.0628531 0)
(0.217309 -0.0259117 0)
(0.306419 -0.0616179 -1.63874e-18)
(0.304394 -0.0266463 2.6551e-19)
(0.24892 -0.103215 0)
(0.22201 -0.0341077 0)
(0.251988 0.0127752 2.07828e-19)
(0.250154 0.0896079 0)
(0.241729 0.0127579 -6.5738e-19)
(0.24145 -0.0124136 3.10177e-19)
(0.257275 -0.0860075 0)
(0.250043 0.0299731 -4.6657e-19)
(0.217106 0.0206943 3.78271e-19)
(0.237075 -0.0036607 7.28975e-20)
(0.238033 0.00382503 -1.37221e-19)
(0.251553 -0.00874656 -5.17213e-19)
(0.213542 0.00650646 7.81236e-20)
(0.213364 -0.00607759 -3.38226e-20)
(0.206679 0.0107986 -6.98128e-20)
(0.231657 -0.0145822 -1.23659e-19)
(0.242455 0.0176945 0)
(0.200067 0.0302155 -6.98714e-19)
(0.240289 -0.0161892 -8.79476e-19)
(0.209046 -0.00115418 9.89246e-21)
(0.245269 -0.00923844 4.95283e-19)
(0.240767 0.0015778 3.05463e-21)
(0.241729 -0.00163178 -5.22377e-21)
(0.246194 0.00267902 -9.03329e-19)
(0.234375 0.0608676 1.05651e-18)
(0.233697 -0.0606256 -2.35767e-19)
(0.248016 -0.0769808 0)
(0.215855 -0.0243525 4.75317e-21)
(0.236608 0.0274638 0)
(0.236552 -0.0279206 8.78732e-20)
(0.319965 0.200168 7.44272e-21)
(0.27237 -0.00774794 1.77261e-18)
(0.239488 0.285227 -3.85643e-19)
(0.238943 -0.283609 2.892e-19)
(0.207924 0.00237412 0)
(0.278142 0.00659284 0)
(0.255897 0.00208604 7.20406e-20)
(0.260923 -0.0168351 0)
(0.225202 -0.0219089 6.01169e-20)
(0.251636 -0.00950626 6.79871e-20)
(0.237849 -0.00253335 -9.35944e-20)
(0.23965 -0.0116527 -3.01709e-19)
(0.230412 -0.0259499 3.44318e-20)
(0.254745 -0.106452 -4.43927e-19)
(0.216771 -0.0757074 -6.70358e-19)
(0.216711 0.0736451 -4.28426e-22)
(0.285504 -0.146919 1.72042e-18)
(0.213188 -0.0105001 0)
(0.263097 -0.11938 -1.15984e-19)
(0.263994 0.119741 2.08823e-19)
(0.242001 0.295337 -7.16478e-19)
(0.241499 -0.294479 5.3632e-19)
(0.246184 -0.0530196 -1.18965e-19)
(0.24658 0.0525219 2.51452e-19)
(0.265897 0.025621 0)
(0.293717 0.380199 1.25404e-18)
(0.397169 0.0459196 -2.60219e-17)
(0.224976 -0.486882 -2.85426e-19)
(0.289028 -0.00769492 0)
(0.246211 -0.00550147 -2.50513e-19)
(0.212668 0.0667752 0)
(0.217307 0.0140628 3.96296e-20)
(0.219351 0.00879246 -4.52033e-20)
(0.247841 -0.0504948 -9.8902e-19)
(0.499819 -0.00222884 3.22811e-17)
(0.233815 -0.00369321 1.18901e-18)
(0.252846 0.123712 2.72787e-21)
(0.251977 -0.123243 -1.49418e-21)
(0.264029 0.177732 1.2952e-18)
(0.262069 -0.162967 -9.23822e-19)
(0.187467 -0.0120914 0)
(0.221355 0.377299 -4.97068e-21)
(0.236516 0.00342318 2.06678e-20)
(0.260089 0.0631225 0)
(0.259643 -0.0633046 0)
(0.241931 0.0173948 -1.58837e-20)
(0.258682 0.0178466 0)
(0.224873 0.00643724 0)
(0.23077 -0.00383318 0)
(0.237961 0.0358435 0)
(0.224744 -0.0169782 2.06986e-19)
(0.260596 -0.102355 8.92999e-20)
(0.261431 0.102601 -1.7372e-19)
(0.234515 -0.0592556 -5.53158e-19)
(0.236486 0.0530376 1.04324e-18)
(0.238854 0.015352 1.68362e-19)
(0.234142 0.0174967 -2.07273e-19)
(0.255394 0.0540501 8.84781e-19)
(0.264229 0.107431 0)
(0.263611 -0.107133 0)
(0.227539 -0.0123581 0)
(0.227981 0.0120771 0)
(0.501035 0.000106383 0)
(0.238091 -0.0556616 4.89147e-19)
(0.267013 -0.024066 0)
(0.301035 -0.101143 8.6585e-19)
(0.254396 0.0188627 5.26193e-20)
(0.258576 -0.0923829 5.17785e-21)
(0.259369 0.0927601 0)
(0.255191 0.277888 6.85294e-19)
(0.254045 -0.275703 -5.30797e-19)
(0.244005 -0.0401523 0)
(0.218592 0.0220529 -3.29521e-19)
(0.258047 -0.0324348 0)
(0.222407 -0.374786 0)
(0.257031 0.0326145 0)
(0.278745 -0.168297 9.97188e-19)
(0.226382 0.0975401 -1.03396e-18)
(0.227567 0.0217791 1.17984e-19)
(0.226686 -0.0219881 -5.44559e-20)
(0.244573 0.012214 -9.37209e-19)
(0.233819 -0.00240158 0)
(0.233945 0.002796 0)
(0.239774 0.0158619 0)
(0.241356 0.0221794 9.99634e-19)
(0.234775 0.0461844 9.59237e-19)
(0.251317 -0.0517723 -5.33158e-19)
(0.233092 -0.00686681 -1.91084e-19)
(0.2204 0.00643658 0)
(0.245496 0.0059838 2.17226e-19)
(0.268136 0.0909416 1.64442e-19)
(0.26752 -0.0914192 -8.28085e-20)
(0.223594 -0.0278766 -6.88677e-20)
(0.224115 0.0281053 -1.59384e-19)
(0.233135 -0.00814843 0)
(0.203001 -0.0692149 0)
(0.250657 -0.0543627 1.19939e-19)
(0.427386 0.272339 1.14273e-18)
(0.240421 -0.0166235 -1.80007e-18)
(0.243086 -0.0143008 -1.39225e-19)
(0.242645 0.014934 6.77276e-20)
(0.246925 0.0156826 -7.39292e-20)
(0.442103 -0.0749148 -2.27197e-21)
(0.208698 0.00466644 0)
(0.25419 0.0703673 -1.82822e-18)
(0.425833 -0.34735 0)
(0.193709 -0.00230308 0)
(0.193331 0.00344413 0)
(0.253475 -0.0564614 -2.56858e-19)
(0.223998 -0.0251184 8.54882e-19)
(0.221543 0.00320879 0)
(0.27428 -0.0135441 6.46302e-21)
(0.253779 -0.0627683 5.09546e-19)
(0.226929 0.0419874 1.92374e-18)
(0.221734 0.0267135 1.26194e-19)
(0.332077 -0.0731398 -7.66516e-18)
(0.238177 0.00496134 0)
(0.221421 0.0166684 -3.37483e-21)
(0.246702 -0.0144231 8.03207e-22)
(0.226902 0.0211483 -1.07964e-18)
(0.279674 -0.164178 0)
(0.280945 0.165362 0)
(0.220083 -0.00966695 2.3352e-19)
(0.357331 -0.143434 -2.88384e-18)
(0.220298 -0.0202581 3.53794e-20)
(0.261066 -0.0169447 1.08585e-19)
(0.261244 0.0171044 -2.21936e-19)
(0.191942 -0.00961921 -2.75092e-20)
(0.191186 0.00928718 -6.43965e-20)
(0.172413 -0.00128196 1.60018e-19)
(0.195075 -0.0025651 -1.27404e-18)
(0.251116 0.0110864 -7.49015e-21)
(0.239314 0.00278533 5.05767e-19)
(0.222353 0.0263444 1.31683e-19)
(0.226014 0.0218373 -6.27373e-19)
(0.251027 0.130389 0)
(0.240547 -0.00295953 -1.53177e-19)
(0.239984 0.00286775 8.40417e-20)
(0.222082 0.0370029 -6.47684e-19)
(0.222158 -0.0734555 0)
(0.229519 0.308623 8.17544e-20)
(0.235361 0.0219583 -8.30769e-19)
(0.228621 -0.306938 -6.21912e-20)
(0.192292 9.02033e-06 7.66898e-20)
(0.271177 -0.0376776 -3.01641e-19)
(0.271651 0.03766 6.68804e-19)
(0.23289 0.0192057 7.87698e-20)
(0.199165 -0.0209844 -7.16904e-19)
(0.24849 0.0148183 -3.49358e-19)
(0.241857 -0.0270711 -2.8485e-19)
(0.241495 0.0278689 6.4839e-19)
(0.263564 0.0106513 -2.39657e-20)
(0.26391 -0.0106836 6.33325e-20)
(0.292017 0.0366299 0)
(0.252109 -0.0717755 0)
(0.252358 0.0721044 0)
(0.259231 0.137844 -1.45704e-18)
(0.258183 -0.137512 8.13794e-19)
(0.254434 -0.015278 -2.79713e-19)
(0.257159 0.145457 7.11765e-19)
(0.255728 -0.144624 -4.2234e-19)
(0.281496 0.153938 0)
(0.26002 0.0883934 1.45499e-18)
(0.258092 -0.0894014 -8.08156e-19)
(0.228574 0.0392804 0)
(0.303952 0.0597994 -2.03691e-18)
(0.32402 -0.225611 -3.91618e-18)
(0.287253 -0.164113 4.73269e-19)
(0.261298 0.0793037 -1.16514e-19)
(0.258478 -0.0111053 7.0148e-20)
(0.271696 0.142885 -5.52884e-19)
(0.256164 0.052874 0)
(0.274311 0.0383832 -4.29818e-19)
(0.235042 -0.00918492 1.20386e-19)
(0.237132 0.00388623 -4.78676e-21)
(0.263255 -0.0603988 -5.74686e-19)
(0.25739 -0.221895 4.70519e-19)
(0.258647 0.223542 -6.48888e-19)
(0.236689 0.0179685 0)
(0.233121 0.00555128 7.40926e-20)
(0.209903 -0.0160048 1.89201e-19)
(0.209914 0.0158839 -1.06542e-19)
(0.228129 -0.00567342 2.62125e-19)
(0.226431 0.00621977 -1.14814e-19)
(0.24231 -0.0970678 0)
(0.243266 0.09755 0)
(0.316555 0.305217 0)
(0.251344 0.127193 1.65959e-19)
(0.249369 -0.1263 -9.70769e-20)
(0.609834 0.301052 2.64555e-20)
(0.23217 -0.0723794 7.02869e-19)
(0.250678 -0.0477203 0)
(0.234397 -0.00694508 9.87628e-20)
(0.269188 0.0512298 0)
(0.263528 0.133357 0)
(0.279211 0.0127379 6.55495e-21)
(0.239442 0.00571787 -5.21199e-19)
(0.732305 0.393441 -8.1178e-18)
(0.25072 -0.0815177 2.07503e-19)
(0.207719 0.0244084 -2.01471e-19)
(0.258057 0.0146592 2.94193e-20)
(0.238142 -0.035416 1.84878e-19)
(0.246753 -0.0636587 -5.2082e-19)
(0.24659 0.0620818 9.99124e-19)
(0.22996 0.0164094 -4.22816e-20)
(0.262892 -0.0108231 0)
(0.265234 0.231766 -3.21848e-19)
(0.265166 -0.23029 2.32016e-19)
(0.245495 -0.00974654 -1.84405e-18)
(0.251984 0.0604956 0)
(0.253579 -0.0158798 1.53445e-19)
(0.317944 0.0567229 -1.83607e-18)
(0.236208 -0.0356357 0)
(0.214052 0.00321744 0)
(0.264604 -0.0570542 -6.42374e-19)
(0.26383 0.0694364 -1.29357e-19)
(0.263296 -0.0696107 6.2176e-20)
(0.225911 -0.00327321 -6.08713e-19)
(0.237408 -0.0266224 2.65217e-19)
(0.257261 0.150549 0)
(0.256191 -0.149848 0)
(0.227801 -0.00645149 1.04183e-20)
(0.22773 0.00686349 -5.07231e-21)
(0.242094 0.0293486 0)
(0.242202 0.0117545 1.9491e-20)
(0.241674 -0.0116032 -1.16024e-20)
(0.163103 0.0487629 -3.50314e-19)
(0.250754 -0.0122244 -3.44205e-20)
(0.217614 0.0469779 -9.31431e-19)
(0.283308 -0.0232978 7.09862e-19)
(0.366602 -0.35024 0)
(0.255273 -0.0965464 1.49008e-18)
(0.266777 0.0155656 6.15111e-19)
(0.253894 5.25483e-05 -2.70168e-19)
(0.244603 -0.0243561 2.32951e-19)
(0.244678 0.024998 -4.92902e-19)
(0.255103 0.0139007 -3.14476e-19)
(0.22657 0.120978 -1.32033e-18)
(0.22383 -0.119724 7.8779e-19)
(0.259513 -0.0524656 0)
(0.25968 0.0518873 0)
(0.257541 -0.00504127 4.00152e-20)
(0.195435 -0.0231107 3.43954e-19)
(0.256844 0.0429763 -4.62241e-19)
(0.256362 -0.0429253 2.15156e-19)
(0.253187 0.141691 5.37392e-19)
(0.251945 -0.141114 -3.09888e-19)
(0.24357 0.0562993 -2.73305e-19)
(0.242995 -0.0561829 -1.22464e-19)
(0.247741 -0.124107 1.48756e-19)
(0.248801 0.124608 -2.70894e-19)
(0.504186 0.00271047 3.2607e-17)
(0.23264 0.0140744 -3.57617e-19)
(0.259397 0.125897 6.86331e-19)
(0.257467 -0.125777 0)
(0.266705 -0.124874 3.84615e-19)
(0.268049 0.12542 -6.95054e-19)
(0.292939 -0.00231074 0)
(0.275165 -0.215398 -4.62779e-19)
(0.26478 0.0324727 -5.889e-21)
(0.264496 -0.033021 4.64392e-21)
(0.247008 0.0348375 -4.09306e-19)
(0.290265 -0.211668 4.90914e-19)
(0.223956 0.38695 0)
(0.232505 -0.0958393 3.56037e-21)
(0.492593 0.00129988 3.30201e-17)
(0.231059 -0.013612 -5.50026e-20)
(0.259597 -0.00224688 -1.32263e-20)
(0.241693 -0.00760066 3.21493e-19)
(0.21605 -0.0170917 0)
(0.263111 -0.16496 -1.04801e-18)
(0.264187 0.165495 1.44387e-18)
(0.275659 0.208902 0)
(0.316611 -0.0369523 0)
(0.259483 0.130003 7.69365e-19)
(0.258606 -0.12965 -4.29099e-19)
(0.629637 -0.231252 -3.85594e-18)
(0.696549 0.0474801 0)
(0.24604 0.255839 8.25506e-19)
(0.245371 -0.25497 -5.81729e-19)
(0.217547 -0.00374803 3.51966e-20)
(0.546644 0.26745 2.45394e-19)
(0.277481 0.220049 0)
(0.276024 -0.217983 0)
(0.678139 0.126382 -3.65344e-18)
(0.268115 0.0486673 -3.2727e-19)
(0.267159 -0.0480953 1.56106e-19)
(0.219998 -0.00234955 -2.34987e-19)
(0.234442 -0.0649502 8.41199e-19)
(0.235035 0.00700958 -5.85303e-20)
(0.269941 -0.101092 1.6149e-19)
(0.270284 0.101048 -3.61371e-19)
(0.267372 0.00934343 -1.94635e-18)
(0.316742 0.268646 0)
(0.26501 -0.0144382 -1.81032e-20)
(0.239051 -0.00951131 1.06317e-18)
(0.264822 -0.00535948 0)
(0.245671 0.00925791 0)
(0.285813 -0.239678 5.28167e-19)
(0.227318 -0.0243809 -4.06556e-19)
(0.259456 0.00624244 6.54801e-20)
(0.262873 -0.00695132 -2.91075e-20)
(0.260935 -0.0511518 4.45158e-19)
(0.261466 0.0513895 -9.96276e-19)
(0.225768 -0.00555334 0)
(0.22684 0.00602469 5.01697e-19)
(0.261612 0.0333288 -1.12776e-18)
(0.241444 -0.000294376 0)
(0.246935 -0.0199061 -1.29233e-19)
(0.226508 -0.0186485 -1.7485e-19)
(0.204971 -0.0172381 -3.47753e-20)
(0.230402 0.0352946 0)
(0.271827 -0.0114193 -5.63795e-20)
(0.210261 0.0131505 -6.4007e-19)
(0.229606 0.00988861 0)
(0.229032 -0.00804009 0)
(0.253088 -0.00931796 -9.48911e-21)
(0.224446 0.00457159 6.43195e-20)
(0.222418 -0.0422872 -1.30347e-18)
(0.263045 0.183896 0)
(0.262324 -0.183079 0)
(0.26201 0.0895416 1.15565e-18)
(0.26186 -0.0107859 -4.93377e-20)
(0.26208 0.0106922 8.11809e-20)
(0.275529 0.223237 -6.76245e-19)
(0.225454 0.0691784 0)
(0.221746 -0.0146423 0)
(0.225709 -0.384624 0)
(0.27483 -0.00480692 0)
(0.249832 -0.000312115 0)
(0.261805 0.00461909 1.53437e-18)
(0.495629 0.0015906 0)
(0.214908 -0.00732858 0)
(0.211852 -0.00373498 0)
(0.22179 -0.00417671 5.95188e-19)
(0.242643 -0.0787516 -5.40569e-19)
(0.243898 0.0789986 1.08392e-18)
(0.244578 0.258828 6.99663e-19)
(0.243562 -0.257261 -5.11373e-19)
(0.248051 -0.0480131 1.55008e-19)
(0.208555 0.00829368 2.85839e-19)
(0.254061 0.20132 0)
(0.252375 -0.20026 0)
(0.225436 0.007351 -9.68547e-19)
(0.445455 0.372233 -4.43899e-18)
(0.248624 0.296314 0)
(0.248285 -0.295303 0)
(0.229545 0.00737953 -4.39424e-19)
(0.178215 -0.0132773 0)
(0.260599 0.128268 -7.79641e-19)
(0.25964 -0.127877 0)
(0.242864 -0.0106233 0)
(0.239547 0.0477994 8.89339e-19)
(0.273646 -0.00905442 0)
(0.261808 -0.0161559 -2.12392e-20)
(0.261157 0.0159291 5.0618e-20)
(0.253323 0.0547062 -2.84231e-20)
(0.50302 0.000313986 8.78991e-21)
(0.245871 0.146733 -1.14483e-18)
(0.30134 0.242633 0)
(0.240581 -0.00489059 -1.10558e-19)
(0.235773 -0.0174194 8.90309e-21)
(0.235908 0.0176439 -1.4973e-20)
(0.283214 -0.00101237 1.76008e-19)
(0.210171 0.00224375 8.1491e-20)
(0.498518 -0.00287806 3.21108e-17)
(0.250147 0.142211 2.18035e-18)
(0.24907 -0.141544 -1.24729e-18)
(0.262711 0.00406617 -5.82972e-20)
(0.221879 -0.00751544 0)
(0.191319 0.426565 -1.5925e-19)
(0.234856 -0.00397532 -2.21021e-19)
(0.247816 0.0111096 -1.37824e-19)
(0.24751 -0.0109681 5.90998e-20)
(0.236382 0.047492 -1.2998e-18)
(0.265963 -0.00565607 6.97087e-19)
(0.265613 0.00585455 -5.55473e-19)
(0.256408 0.00526396 -3.20278e-19)
(0.257635 0.135124 0)
(0.255947 -0.134336 0)
(0.214015 -0.0573752 -8.29634e-19)
(0.292472 -0.149342 -1.93316e-18)
(0.259591 -0.00859224 0)
(0.273598 0.00502645 0)
(0.236654 0.00799478 0)
(0.26135 -0.169752 0)
(0.262129 0.170769 0)
(0.251954 0.0425989 1.6292e-18)
(0.222754 -0.0393661 -2.21605e-20)
(0.221475 0.0401681 2.17271e-20)
(0.221893 0.0163408 -2.22977e-19)
(0.257808 -0.0127326 0)
(0.246329 -0.082659 2.59644e-19)
(0.246565 0.0824781 -5.79271e-19)
(0.21719 -0.00727753 -7.83477e-20)
(0.430822 0.126179 8.42126e-18)
(0.269244 -0.0626376 -2.59392e-19)
(0.26931 0.0613159 4.86487e-19)
(0.290403 -0.105916 0)
(0.219859 0.00155222 1.35967e-19)
(0.248134 -0.00903437 -7.55496e-19)
(0.210756 0.0329638 0)
(0.273728 0.235955 -6.9067e-19)
(0.271838 -0.233959 5.37635e-19)
(0.237945 -0.00563888 -5.4726e-20)
(0.236478 0.00681333 -2.96675e-20)
(0.237136 -0.00650468 5.31501e-20)
(0.274439 0.0916255 2.81788e-19)
(0.274196 -0.034692 -5.50638e-19)
(0.257068 0.0286745 1.07317e-18)
(0.281478 -0.0249564 7.95704e-19)
(0.272209 0.0311615 4.1404e-19)
(0.237201 0.0134751 -1.07413e-19)
(0.236797 -0.0140331 5.09999e-20)
(0.246834 0.00947538 1.20033e-19)
(0.225961 0.0339462 2.71995e-19)
(0.243563 -0.0195626 2.80302e-19)
(0.262727 0.160877 -1.66568e-19)
(0.261654 -0.159963 1.10259e-19)
(0.268875 -0.0738883 0)
(0.214558 0.00702791 6.69096e-20)
(0.220104 -0.00872564 1.14846e-20)
(0.234778 -0.00523978 -8.48921e-20)
(0.457316 0.761566 0)
(0.258024 -0.190865 5.19304e-19)
(0.259016 0.191741 -4.08861e-19)
(0.267174 -0.121492 0)
(0.268174 0.121892 0)
(0.229694 -0.0245077 3.12415e-20)
(0.24036 0.0133051 -4.62365e-20)
(0.224289 -0.0447588 8.33774e-19)
(0.229377 -0.0211879 4.94698e-20)
(0.229963 0.0214717 -7.63047e-20)
(0.263096 0.0351832 9.92158e-21)
(0.263104 -0.0345515 -7.12752e-21)
(0.169394 0.0950381 1.89605e-18)
(0.261573 -0.0738297 0)
(0.240084 -0.0401536 6.72171e-19)
(0.238835 0.0404256 -1.31752e-18)
(0.35704 0.102432 1.20855e-18)
(0.192228 -0.425018 1.42199e-19)
(0.240239 -0.0202604 3.13476e-20)
(0.229946 -0.040542 3.06466e-20)
(0.279427 -0.0670256 0)
(0.22221 -0.0641706 -5.36752e-19)
(0.305946 -0.0757829 2.9165e-18)
(0.213967 -0.0137871 1.01479e-19)
(0.512609 -0.00300454 -6.80929e-17)
(0.263253 0.0753278 0)
(0.340178 0.00408013 -1.55275e-17)
(0.502199 -0.00608101 7.44875e-21)
(0.25589 -0.0113729 1.52043e-18)
(0.289106 0.156991 -4.84592e-19)
(0.225939 -0.00277354 1.49045e-20)
(0.196282 -0.014362 0)
(0.256214 -0.214638 -8.60239e-19)
(0.257099 0.215639 1.38709e-18)
(0.232862 0.0001794 1.86796e-20)
(0.238726 -0.0134414 -5.22531e-20)
(0.210357 0.0107251 -8.37053e-21)
(0.24878 0.0451794 0)
(0.248448 -0.0452948 -1.98244e-19)
(0.213429 0.0184688 -1.29588e-19)
(0.278387 -0.0129668 0)
(0.215666 -0.0246066 3.12479e-19)
(0.215983 0.0246386 -6.96129e-19)
(0.233599 0.0168023 2.90545e-20)
(0.246255 0.00897431 1.11998e-19)
(0.23454 0.00586989 -2.3235e-19)
(0.234385 -0.00528164 1.13813e-19)
(0.212855 0.0187152 -4.81939e-20)
(0.255059 -0.00727878 8.38598e-20)
(0.242242 0.00135706 -8.77988e-20)
(0.337037 0.262461 1.04411e-18)
(0.240606 0.0297514 -8.53564e-20)
(0.218492 0.00702737 0)
(0.252934 0.609906 1.22332e-23)
(0.25143 -0.172469 4.09675e-19)
(0.252438 0.172759 -6.9402e-19)
(0.226713 -0.00482233 -5.33313e-20)
(0.236087 -0.0348099 -3.52133e-20)
(0.209969 0.00312396 0)
(0.23803 0.0135952 2.08259e-19)
(0.250939 0.0310133 0)
(0.285765 0.175553 -5.99689e-19)
(0.224099 0.00588118 0)
(0.292834 0.0248928 6.78439e-19)
(0.291711 -0.0252449 -3.24952e-19)
(0.290574 0.0559005 0)
(0.2882 -0.057048 0)
(0.261028 -0.0868864 0)
(0.262231 0.087071 0)
(0.239227 0.010691 0)
(0.254292 0.0197239 1.85421e-20)
(0.254184 -0.0203905 -1.06255e-20)
(0.232524 -0.0262279 0)
(0.204681 -0.0305425 -2.32827e-19)
(0.227936 0.0264588 8.41621e-19)
(0.240048 0.00195378 1.31904e-19)
(0.240865 -0.00162568 -2.90699e-19)
(0.246144 -0.00237524 9.18282e-20)
(0.247131 -0.0328829 1.42154e-18)
(0.245894 -0.0347044 0)
(0.246059 0.0348692 0)
(0.224964 -0.00578405 4.44419e-20)
(0.236535 -0.0202983 4.07331e-19)
(0.237373 0.0208977 -3.86952e-19)
(0.230276 -0.00355194 8.30037e-20)
(0.230692 0.00487569 -1.64218e-19)
(0.242349 -0.0311188 -6.43144e-21)
(0.243281 0.031148 1.48537e-20)
(0.27315 -0.0298733 0)
(0.242713 -0.0442319 0)
(0.245495 -0.0174989 0)
(0.212593 -0.013572 -7.75035e-20)
(0.355921 0.114848 0)
(0.229652 -0.0103576 3.93638e-19)
(0.257694 0.164039 -7.34005e-19)
(0.256542 -0.163427 4.28854e-19)
(0.204839 0.0214701 0)
(0.247363 -0.0535947 -6.47239e-20)
(0.25 -0.0290058 0)
(0.250793 0.0286809 0)
(0.223124 -0.0215352 0)
(0.245221 -0.0133404 -3.94642e-20)
(0.245715 0.0129642 8.18079e-20)
(0.205644 0.0087879 3.75946e-19)
(0.24102 0.101654 -1.80454e-18)
(0.23398 0.00384365 4.2681e-19)
(0.233611 -0.00322165 -6.26781e-20)
(0.233907 0.14308 5.57133e-19)
(0.359747 0.125619 0)
(0.25191 0.00371014 1.27996e-18)
(0.204179 0.0640686 4.6245e-19)
(0.226464 -0.0241644 0)
(0.24005 0.0321043 0)
(0.239889 -0.0318969 -2.46382e-20)
(0.260415 -0.170856 -8.52333e-19)
(0.261406 0.171587 0)
(0.241924 -0.00947581 0)
(0.227283 -0.00372475 0)
(0.227441 0.0582344 8.36625e-19)
(0.236717 0.0380929 6.51591e-21)
(0.216964 -0.00985497 5.37654e-20)
(0.216746 0.00955906 -9.40417e-20)
(0.23603 -0.0690959 9.81168e-19)
(0.279987 0.088907 4.99998e-19)
(0.28646 -0.0136593 3.23052e-19)
(0.288349 0.00881537 -7.06649e-19)
(0.252721 0.119803 7.41753e-19)
(0.251725 -0.119257 -3.99298e-19)
(0.242788 0.0069966 6.22987e-21)
(0.252776 0.0645592 -8.93483e-19)
(0.252579 -0.04048 -4.71712e-19)
(0.244206 0.0212117 1.54502e-19)
(0.243551 -0.0216267 -7.27723e-20)
(0.225816 -0.0260677 8.47678e-19)
(0.244048 0.025995 -9.01914e-19)
(0.245323 -0.0275776 4.23969e-19)
(0.299099 0.0366137 2.80367e-18)
(0.244578 -0.0127486 1.88721e-19)
(0.296809 -0.0092881 -2.4031e-19)
(0.252329 -0.000924431 -1.0782e-19)
(0.237191 0.0340133 8.54117e-19)
(0.266113 0.01214 -2.85564e-19)
(0.287832 0.0185723 -7.74861e-20)
(0.248953 0.0308242 0)
(0.230501 -0.0456694 0)
(0.231162 0.0462763 0)
(0.247792 0.0266797 1.49096e-19)
(0.241099 0.00648251 1.75059e-19)
(0.232668 0.185259 1.27335e-18)
(0.231034 -0.1844 -9.17731e-19)
(0.260557 0.178443 0)
(0.259187 -0.177852 0)
(0.265966 0.00111029 -2.47142e-20)
(0.307437 0.0554518 -6.11464e-20)
(0.241213 -0.0692596 1.16447e-18)
(0.25746 -0.149353 6.70031e-19)
(0.258342 0.150005 -1.158e-18)
(0.599693 -0.0701561 -1.51056e-17)
(0.250921 0.285129 6.75356e-19)
(0.251262 -0.283143 -5.21143e-19)
(0.214365 0.0179723 0)
(0.235069 -0.00238715 -1.22377e-19)
(0.23536 0.00278375 2.6265e-19)
(0.523321 -0.0290265 0)
(0.270794 0.228519 6.58246e-19)
(0.26995 -0.226959 -4.90168e-19)
(0.246991 -0.00825139 6.71318e-20)
(0.262456 0.226128 0)
(0.261023 -0.225158 0)
(0.274049 0.0142131 9.11371e-19)
(0.289019 -0.0266467 -4.19993e-18)
(0.265538 -0.0127582 -9.13267e-19)
(0.245413 -0.0047712 -6.44116e-20)
(0.199959 0.0161491 -3.56773e-19)
(0.1993 -0.0161659 1.61215e-19)
(0.189183 0.103097 -2.73465e-18)
(0.227393 -0.0299225 0)
(0.23932 -0.0135644 -1.94006e-19)
(0.218223 -0.0547886 0)
(0.254022 0.0166281 4.69125e-21)
(0.25193 0.0278132 -1.26995e-18)
(0.206529 0.0307106 0)
(0.284821 -0.0688718 -8.61689e-19)
(0.239855 -0.00588736 -4.20533e-20)
(0.255327 -0.0026974 0)
(0.245721 -0.159222 9.17829e-19)
(0.247018 0.16028 -1.49406e-18)
(0.239823 0.265241 0)
(0.239174 -0.264388 0)
(0.212067 0.122749 -5.23694e-19)
(0.257452 0.127523 0)
(0.263676 0.260768 2.59047e-22)
(0.262409 -0.258355 -1.56753e-21)
(0.236689 -0.0063298 0)
(0.251195 -0.117544 -1.97118e-19)
(0.252641 0.118032 3.46507e-19)
(0.249073 -0.00246042 -2.95847e-20)
(0.23923 -0.00235538 0)
(0.30152 0.130197 -1.09694e-18)
(0.224869 0.00412878 0)
(0.2642 -0.0904343 0)
(0.265294 0.0903575 0)
(0.293879 -0.00957336 3.35308e-21)
(0.249244 0.000825801 -6.72167e-20)
(0.217863 0.00741462 0)
(0.274064 0.0142566 -5.34688e-20)
(0.235894 -0.0271327 0)
(0.236281 0.0281099 0)
(0.235605 0.102345 1.07397e-18)
(0.266842 0.0130963 -5.99736e-21)
(0.237309 0.0012047 0)
(0.257194 -0.0119929 4.21972e-19)
(0.320679 -0.0798056 0)
(0.27325 0.0127308 6.63331e-19)
(0.237172 0.0370411 1.89463e-21)
(0.239047 -0.0342439 -3.98385e-21)
(0.245529 0.00728503 -2.89492e-20)
(0.234156 -0.00654102 0)
(0.210347 0.00468478 0)
(0.276641 0.151898 0)
(0.275802 -0.151203 0)
(0.239819 0.120079 6.21322e-19)
(0.236787 -0.117859 4.42295e-19)
(0.201888 0.0135607 0)
(0.200989 -0.0121292 0)
(0.227026 -0.00408113 -1.03436e-20)
(0.247886 0.276554 0)
(0.247499 -0.275414 0)
(0.213838 0.0312363 1.25882e-18)
(0.258202 0.209205 0)
(0.257386 -0.208094 0)
(0.24462 0.0221603 -1.56331e-19)
(0.243801 -0.0220628 7.18817e-20)
(0.256599 -0.019727 0)
(0.230609 -0.0133471 1.98691e-19)
(0.25256 0.0956257 0)
(0.243826 -0.0885167 -8.90473e-20)
(0.261512 -0.0539855 6.38968e-19)
(0.247601 -0.164558 -4.44572e-19)
(0.248327 0.165289 7.39308e-19)
(0.23267 0.0314835 8.02574e-19)
(0.257308 -0.144542 0)
(0.259037 0.145266 0)
(0.209229 0.0104772 2.31253e-19)
(0.209548 -0.0104289 -1.15497e-19)
(0.250486 -0.0868559 0)
(0.255777 -0.0422287 3.0286e-19)
(0.255823 0.0422568 0)
(0.209371 0.0212203 0)
(0.307081 -0.0530822 9.10907e-19)
(0.221267 -0.0302352 1.036e-18)
(0.249742 0.270794 0)
(0.24977 -0.269214 0)
(0.250614 -0.142785 4.37375e-19)
(0.252565 0.144209 -1.4332e-18)
(0.260584 0.0285743 9.26364e-21)
(0.225033 -0.043184 6.04406e-19)
(0.25482 0.144664 0)
(0.253484 -0.143974 0)
(0.189737 -0.0277261 3.50135e-19)
(0.22613 -0.00137048 0)
(0.378665 -0.149235 4.04789e-18)
(0.15017 0.462259 -1.32127e-18)
(0.250517 -0.00920522 9.6733e-20)
(0.236613 -0.0439771 -1.52007e-19)
(0.237405 0.044166 3.42042e-19)
(0.260935 0.0324272 -9.10916e-19)
(0.441837 0.197024 7.82244e-18)
(0.649305 -0.0486905 1.87715e-17)
(0.264331 0.0136027 3.58956e-19)
(0.262772 -0.0135422 -1.61099e-19)
(0.258637 -0.121562 -1.9375e-19)
(0.261213 0.121958 3.17437e-19)
(0.288483 -0.162854 1.44724e-18)
(0.244159 -0.026189 1.71202e-19)
(0.244877 0.0263499 -3.67862e-19)
(0.249237 0.257059 -1.52722e-22)
(0.248883 -0.255139 3.48688e-21)
(0.227511 -0.00549523 -6.00647e-20)
(0.268066 0.126015 -6.31409e-19)
(0.26468 -0.125933 3.9426e-19)
(0.232782 -0.0154439 -1.45619e-19)
(0.251732 0.0149285 0)
(0.286878 -0.158068 0)
(0.261063 -0.00270544 0)
(0.238513 -0.189683 1.02053e-18)
(0.247041 0.195515 -1.17263e-18)
(0.283255 0.180993 1.13347e-18)
(0.151273 -0.463492 1.19698e-18)
(0.233847 0.0109095 -1.51319e-19)
(0.235714 -0.0178348 0)
(0.242254 0.176834 -1.99379e-18)
(0.240281 -0.173465 1.38382e-18)
(0.259386 0.024314 9.65165e-21)
(0.259318 -0.0237465 0)
(0.32761 0.148951 0)
(0.253644 -0.0309045 -1.84023e-19)
(0.224205 0.0265956 0)
(0.25456 -0.199024 -1.01166e-18)