/*--------------------------------*- C++ -*----------------------------------*\
  =========                 |
  \\      /  F ield         | OpenFOAM: The Open Source CFD Toolbox
   \\    /   O peration     | Website:  https://openfoam.org
    \\  /    A nd           | Version:  7
     \\/     M anipulation  |
\*---------------------------------------------------------------------------*/
FoamFile
{
    version     2.0;
    format      ascii;
    class       volScalarField;
    location    "6";
    object      p;
}
// * * * * * * * * * * * * * * * * * * * * * * * * * * * * * * * * * * * * * //

dimensions      [0 2 -2 0 0 0 0];

internalField   nonuniform List<scalar> 
13182
(
0.000107683
2.04269e-05
7.85074e-05
0.000112979
4.14252e-05
0.000102062
0.000102773
0.000110506
0.000114344
5.21306e-05
5.21847e-05
6.24448e-05
0.000102921
0.000101913
0.000100753
0.000105043
0.000114143
0.000116052
9.93726e-05
0.000100192
9.9552e-05
0.000108283
0.000104065
9.08778e-05
9.05445e-05
9.12966e-05
0.000110266
9.01904e-05
6.35526e-05
0.00011629
0.000116279
0.000113698
0.000105394
5.15142e-05
4.73025e-05
0.000100637
0.000114077
6.80899e-05
7.27404e-05
0.000109879
2.07242e-05
2.35574e-05
7.90933e-05
1.06231e-05
8.80084e-05
3.77829e-05
0.000113023
7.30665e-05
7.00262e-05
0.000112114
8.57524e-05
8.66735e-05
5.02405e-05
0.000110315
0.000102916
9.21037e-05
6.54748e-05
0.000111612
0.000103202
0.000115197
0.000114089
0.000112824
0.000110325
9.36748e-05
8.47905e-05
8.42812e-05
0.000103729
8.94077e-05
4.34726e-05
9.48558e-05
1.22608e-05
0.000108447
0.000109398
9.0006e-05
1.7991e-05
0.000113985
0.000113773
0.00011242
0.000107803
0.000107578
0.000116025
5.02374e-05
9.919e-05
9.9982e-05
1.74031e-05
1.82542e-05
2.2017e-05
5.49407e-05
9.1812e-05
9.34791e-05
6.02729e-05
0.000114191
5.54603e-05
5.49711e-05
0.000108095
0.00011188
6.02308e-05
0.000106468
0.000111513
0.000100343
9.9047e-05
6.60681e-05
8.2897e-05
0.00010249
0.00010825
8.60262e-05
2.20632e-05
2.11727e-05
0.000113898
7.15275e-05
0.000111402
3.10709e-05
2.88037e-05
0.000102787
8.354e-05
5.48479e-05
0.000110901
1.72373e-05
9.44721e-05
9.40617e-05
9.31095e-05
4.27746e-05
0.000114046
0.000100304
7.72839e-05
7.47266e-05
0.000100128
0.000115063
0.000100851
6.71039e-05
6.4148e-06
6.03388e-06
0.000111315
4.00269e-05
0.000102812
0.000114192
0.000113359
9.46547e-05
0.000101083
0.000107585
5.76174e-05
1.80306e-05
2.08735e-05
8.33364e-05
8.21145e-05
0.000110953
0.000106671
3.8699e-05
0.000115433
6.86227e-05
1.07095e-05
8.52106e-05
8.56542e-05
6.73722e-05
9.07463e-05
9.02627e-05
1.57228e-05
3.36189e-05
2.58516e-05
8.93458e-05
9.03696e-05
6.69442e-05
6.17196e-05
0.000109697
0.000108407
8.0333e-05
0.000114622
9.48468e-05
8.06342e-05
3.76425e-05
4.81082e-05
0.000103477
0.000103309
7.75587e-06
7.07937e-05
0.000109383
3.16595e-05
5.94618e-05
0.000110316
0.000100516
9.01027e-05
6.80978e-05
0.000114397
9.62552e-05
4.62285e-05
6.99791e-05
7.32287e-05
0.000108892
8.83071e-05
8.55933e-05
6.21598e-05
0.000114317
7.1982e-05
1.7586e-05
0.000114012
7.89691e-05
6.63351e-05
9.83682e-05
8.97321e-05
9.28367e-05
0.000108298
0.000108391
1.31503e-05
0.000112044
5.54638e-05
1.61912e-05
4.6097e-05
5.02162e-06
0.000114505
5.22484e-05
7.92895e-05
4.32684e-06
0.000110659
0.000103059
6.0715e-05
9.61181e-05
8.6231e-05
0.000114471
7.89762e-05
1.09871e-05
8.73825e-05
8.9577e-05
9.18276e-06
0.000101478
4.48138e-05
0.000114082
0.000111912
0.000116077
0.000116202
0.000108183
0.000112093
0.000107417
0.000106989
0.000102388
0.00010961
0.000110556
7.84867e-05
0.000110387
0.000110257
0.000106285
1.39056e-05
1.4814e-05
0.000110729
0.000104133
0.000104638
0.000101274
9.44386e-05
9.40969e-05
0.000113434
9.43951e-05
0.000104151
5.36047e-05
7.75311e-05
7.84696e-05
1.67287e-05
0.000114054
5.94228e-05
1.02636e-05
9.59555e-06
3.20407e-05
7.59642e-05
0.000114504
0.000113861
0.000116971
9.41837e-05
8.07459e-05
5.67893e-05
0.000110864
9.32446e-05
0.000112558
0.00011201
0.000111834
0.000110043
6.62148e-05
0.000114132
6.65466e-05
0.000110748
0.000110225
9.5409e-05
1.63431e-05
0.000116006
7.27727e-05
7.19011e-05
0.000102503
0.000105851
6.89583e-05
7.01077e-05
0.000116004
4.38423e-05
0.000111716
0.000112328
5.31478e-05
3.92238e-05
8.83608e-05
0.000113052
0.000113036
0.000114037
0.000113995
0.000115269
0.000115109
8.00589e-05
9.36989e-05
0.000107916
0.000107612
4.70587e-05
3.52405e-05
9.56018e-05
9.81237e-05
0.000113069
8.01914e-05
0.000105524
0.000115339
7.28179e-05
0.000110671
0.000114317
0.000114289
0.000114388
0.000103472
0.000116294
5.96043e-05
5.68399e-05
3.93057e-05
0.000109649
0.000109895
0.000102953
0.000113624
8.48558e-05
9.89662e-05
8.46753e-05
7.00946e-05
9.9524e-05
9.99638e-05
6.02781e-05
6.07221e-05
6.20724e-05
9.28407e-05
9.38381e-05
9.89698e-05
0.000115219
5.00096e-05
1.36981e-05
0.000110201
0.000116538
4.40322e-05
4.5551e-05
0.00011218
9.28384e-05
9.38966e-05
0.000102694
8.95527e-05
9.07822e-05
0.000114356
3.73628e-05
0.000108717
0.000108578
0.000112012
0.000106945
0.000107317
0.000113925
0.000107364
5.59694e-05
0.000114668
3.21122e-05
0.000108432
3.37393e-05
3.92435e-05
0.000114295
0.000107345
0.000107677
7.63824e-05
0.000114157
0.000108652
5.84502e-05
7.56331e-05
0.000105403
0.000113484
7.25037e-05
4.9e-05
1.30937e-05
9.97645e-05
9.3735e-05
5.7994e-05
0.00011413
0.000102547
8.49738e-05
8.58595e-05
7.87993e-05
0.000110071
4.20622e-05
9.97821e-05
9.01743e-05
0.000115623
0.000115675
9.94112e-05
9.88699e-05
0.000111592
0.000114094
5.45638e-05
7.71778e-05
0.000110577
5.67285e-05
5.34749e-05
9.57665e-05
0.00011421
0.000111068
6.53904e-05
9.08012e-05
0.000114549
0.000113412
8.23691e-05
9.96541e-05
0.000100063
5.78086e-05
8.37601e-05
0.000116548
3.87709e-05
0.000112347
4.84268e-05
7.73921e-05
0.000104653
8.0415e-05
0.000108027
0.000114279
0.000114426
0.000116443
4.91504e-05
0.000110798
8.57267e-05
0.000105862
0.000107846
1.4362e-05
9.06477e-05
9.50777e-05
0.000112476
0.000107986
4.40287e-05
0.000103887
7.39952e-05
5.12812e-05
0.000103432
2.59005e-05
7.58696e-05
7.78766e-05
9.78346e-05
8.51973e-05
0.000112965
2.81337e-05
0.000113644
5.6114e-05
0.000115863
0.00011169
6.5762e-05
6.47671e-05
0.000112286
3.05771e-05
9.26991e-05
0.000116908
0.000114184
0.000114295
0.000111082
0.000114429
0.000107049
3.39789e-05
0.000109864
0.000111867
0.000116003
7.62366e-05
7.55205e-05
0.000113871
0.000107087
0.000107135
3.65684e-05
0.000115479
8.96056e-05
3.66446e-05
7.46244e-05
0.000115527
5.98752e-05
0.000115523
0.000113314
0.000113019
0.00011402
8.16022e-05
0.000111408
1.75025e-05
5.90762e-05
9.77579e-05
6.16063e-05
4.17109e-05
2.13403e-05
0.000112339
8.42526e-05
0.000113202
3.22483e-05
0.000117008
7.06293e-05
9.01818e-05
1.86242e-05
0.000104197
5.11881e-05
0.000112977
0.000110555
0.000113521
3.74946e-05
5.85025e-05
0.000102021
0.000111839
0.000111727
7.70321e-05
6.81913e-05
6.98188e-05
7.07238e-05
0.000104415
9.39126e-05
8.78858e-05
0.000104915
7.3736e-05
0.000112418
0.000100188
2.99221e-05
0.00010208
0.000107955
0.00010818
6.98973e-05
8.02152e-05
8.17407e-05
0.000112012
8.99584e-05
0.000115851
8.94926e-05
8.98903e-05
0.000110567
0.000104376
0.000104928
1.03704e-05
0.000101426
0.000100875
6.33573e-05
9.10461e-05
8.75785e-05
9.84835e-05
5.82606e-05
0.000116004
6.91532e-05
0.000104663
8.41955e-05
8.26744e-05
0.000107958
6.57907e-05
0.000114549
0.000115771
0.000107083
0.000107379
0.000107367
0.000106861
0.00011276
0.000116348
0.000110605
9.30824e-05
0.000110823
4.11453e-05
0.000114918
0.000108464
8.84423e-05
0.000111811
0.000107975
8.88253e-05
2.90622e-05
6.81991e-05
9.9302e-05
9.79768e-05
5.70612e-05
5.55344e-05
9.07304e-05
0.000113662
0.000109586
0.000107842
0.000102976
0.000109806
7.30488e-05
9.819e-05
5.03322e-05
0.000113392
0.000105584
0.000104429
9.92367e-05
0.000114013
0.000108932
0.000109325
7.4518e-05
7.46397e-05
2.19067e-05
0.000108284
9.83012e-05
0.000104909
6.07442e-05
7.9838e-05
0.000114095
0.000116823
0.000116552
0.000110731
0.000108534
0.000107865
0.000107496
5.08446e-05
8.75223e-05
5.0502e-05
8.41715e-05
0.000114117
0.000113846
0.000115632
5.58749e-05
0.000109803
4.68275e-05
7.59322e-05
2.74314e-05
6.36519e-05
9.21917e-05
5.05245e-05
8.76264e-05
0.000112854
6.0697e-05
0.000107557
0.000114211
4.76717e-05
5.19876e-05
0.000116017
0.000102982
4.87877e-05
0.000111351
0.0001161
0.000116175
9.55407e-05
9.24775e-05
4.7246e-05
6.05165e-05
0.000111175
0.00010722
0.000111939
0.00010254
0.000111347
6.21798e-05
9.05804e-05
0.000108579
0.000113764
4.14436e-05
5.88746e-05
0.000111475
7.25125e-05
4.42043e-05
0.000112622
0.000112423
6.72177e-05
0.00011421
0.000112989
5.74606e-05
0.000116051
7.70176e-05
5.06391e-05
5.78672e-05
0.000114497
7.26469e-05
5.26422e-05
9.84946e-05
0.000100193
9.94189e-05
0.00010706
0.000107253
0.000114426
8.47092e-05
0.000116993
0.000105153
0.000114567
9.86373e-05
0.000111602
3.70923e-05
0.000116036
0.000108708
5.2758e-05
0.000112482
8.52632e-05
0.000113257
0.000113227
6.25491e-05
0.000114125
5.93447e-05
5.98339e-05
5.5555e-05
5.54943e-05
0.000113499
0.000102739
0.000103334
2.83992e-05
6.27253e-05
0.000114147
0.000114177
0.000107175
0.000100429
9.05214e-05
4.7407e-05
0.00011356
0.000113982
0.000110287
0.000108185
3.65028e-05
8.55899e-05
0.000111961
0.000111254
2.43327e-05
8.88529e-05
0.000109899
0.000112744
0.000108778
0.000108324
5.40861e-05
5.89572e-05
0.000112832
0.00011311
0.000110986
1.33135e-05
3.15563e-05
6.45676e-05
0.000111967
9.97141e-05
0.000116317
0.000116847
3.64033e-05
2.99357e-05
7.35914e-05
0.000117059
0.000102093
9.70073e-05
9.22992e-05
0.000106386
9.89094e-05
7.07809e-05
0.00010938
0.000113329
9.83371e-05
8.55045e-05
8.6279e-05
0.000112657
8.77093e-05
8.77945e-05
0.000116392
5.54226e-05
9.32634e-05
9.70797e-05
0.000102105
8.92803e-05
0.000113387
5.62658e-05
9.83749e-05
0.000107883
3.77307e-05
0.000114123
8.7343e-05
9.81764e-05
0.000113892
4.38853e-05
0.000109905
0.000113284
3.88177e-05
7.48471e-05
0.000113872
0.000115092
9.31843e-05
0.000101291
6.50152e-05
0.00011201
1.8766e-05
1.56433e-05
0.0001119
0.00010138
0.000114052
0.000114397
5.48237e-05
8.97126e-05
0.00011133
0.00011374
8.94251e-05
6.8763e-05
0.000115023
9.07747e-05
1.15823e-05
9.83216e-06
0.000115234
9.9756e-05
0.000100344
7.4832e-05
8.16484e-05
3.2283e-05
0.000108165
5.44679e-05
9.25043e-05
4.85157e-05
0.000109755
0.000106961
0.00011225
5.56048e-05
6.60589e-05
8.63716e-05
6.03331e-05
0.000110833
3.12913e-05
0.000113359
8.6507e-05
0.000113336
0.000108047
9.71158e-05
9.14156e-05
1.4398e-05
5.3897e-05
5.73119e-05
6.67097e-05
3.07906e-05
6.83084e-05
0.000113452
0.000111205
8.8437e-05
8.87298e-05
0.000116218
7.85505e-05
9.64389e-05
9.56937e-05
0.000112899
5.0968e-05
4.73708e-05
0.000102358
9.88892e-05
0.000110917
0.000101311
0.000110252
0.000110358
9.36637e-05
9.71384e-05
3.62338e-05
3.6958e-05
6.7804e-05
9.07466e-05
0.000115305
6.50281e-05
9.64085e-05
0.000112449
0.000102824
9.54045e-05
9.55864e-05
6.23297e-05
9.64885e-05
8.04318e-05
0.00011296
0.000108579
0.000100294
0.000114807
0.00010269
7.86714e-05
5.99336e-06
0.000116829
0.000111379
1.94368e-05
0.000100839
4.31826e-05
0.000116093
3.21046e-05
8.20242e-05
0.000111858
2.12494e-05
9.81418e-05
0.000107558
0.000113426
0.000114108
0.000114032
8.79971e-05
0.000114752
8.40804e-05
0.0001099
0.000108525
1.68716e-05
0.000113572
8.15751e-05
0.000109957
0.000113552
3.82913e-05
6.45163e-05
9.31966e-05
0.000108334
0.000114456
0.000113661
9.10701e-05
9.05179e-05
0.000104956
1.24396e-05
0.000109459
0.000112254
6.79286e-05
0.000111869
6.1733e-05
8.78823e-05
7.66832e-06
0.000108309
4.55904e-05
0.000101417
6.57476e-05
0.00011624
0.000111051
0.000108151
6.67777e-05
6.91264e-05
0.000106792
3.03127e-05
4.8636e-05
4.26406e-05
4.18788e-05
7.87189e-05
0.000105439
7.61022e-05
7.02045e-05
7.19324e-05
5.51866e-05
0.000109073
0.000108969
6.71306e-05
0.000107817
0.000114561
1.29965e-05
0.000113965
0.000102389
0.000100658
0.000103908
0.000110576
0.000111731
0.000108182
0.000108286
6.75245e-05
0.000109449
0.000103222
0.000107457
9.74474e-05
9.64033e-05
9.7619e-05
4.89714e-05
8.80861e-05
8.85492e-05
0.000112019
4.81349e-05
7.59751e-05
8.95285e-05
6.00492e-05
5.78342e-05
8.62871e-05
3.73935e-05
0.000109096
7.30713e-05
9.92979e-05
9.88326e-05
7.05892e-05
0.000102136
4.67909e-05
8.64718e-05
0.000113743
4.71067e-05
0.000115285
6.23971e-05
5.8836e-05
8.46499e-05
0.000116458
8.69153e-05
0.000113215
0.000112851
0.000100364
8.7239e-05
0.000107977
0.000113221
9.96453e-05
1.31596e-05
4.78745e-05
9.85136e-05
0.000110429
0.000106776
0.000105998
0.000102431
4.19511e-05
0.000111528
9.02374e-05
0.000112011
6.4126e-05
0.000113479
8.75918e-05
9.66514e-05
9.70445e-05
9.86109e-05
0.000100515
0.000100284
9.9838e-05
0.000102797
3.41027e-05
0.000102061
8.81929e-06
0.00011262
0.000112575
0.000112444
9.23649e-05
0.00010267
8.98966e-05
0.000115753
0.000107312
0.000106374
0.000100417
2.98687e-05
0.000112029
4.7216e-05
0.000111055
0.000116354
9.54768e-05
9.56243e-05
7.00752e-05
7.46657e-06
9.72419e-05
5.23827e-05
0.000112114
0.000113399
0.000113645
0.000113614
9.3083e-05
9.3294e-05
0.000116256
0.000114114
0.000107793
0.000117033
0.000111135
0.00011465
7.69189e-05
7.97698e-05
1.03193e-05
7.16695e-05
2.9891e-05
0.00010813
3.34995e-05
0.000112957
6.72694e-05
0.000114328
0.000114664
0.000112695
0.000107982
4.04225e-05
9.58086e-05
8.94242e-05
0.000110442
8.00584e-05
0.000110809
6.77258e-05
7.20249e-05
8.82215e-05
1.87587e-05
0.000113037
3.88386e-05
3.8617e-05
9.36378e-05
0.000114785
0.000112691
6.05281e-05
8.53768e-05
0.000102975
8.20981e-05
9.44505e-05
4.51086e-05
2.6274e-05
0.000114425
8.30651e-05
9.27609e-05
7.03718e-05
6.73235e-05
6.63448e-05
9.51901e-05
0.000116644
0.000115411
9.51801e-05
4.76726e-05
6.3259e-05
0.000108087
0.000114477
0.000114445
3.3196e-05
3.40921e-05
0.000114012
0.000113816
0.000114561
8.1407e-05
8.52704e-05
9.55489e-05
3.2301e-05
6.35971e-05
0.000109954
6.3413e-05
6.34795e-05
0.000109275
9.82509e-05
8.83523e-05
8.8443e-05
0.000107739
9.90675e-05
0.000103372
2.73014e-05
5.76489e-05
7.35835e-05
7.25966e-05
0.000110418
6.90383e-05
0.000113431
8.90012e-05
8.64085e-05
0.000102303
1.63657e-05
9.52976e-05
4.99636e-05
9.98247e-05
0.000108131
1.07981e-05
9.22498e-06
0.000111267
2.96687e-05
0.000114268
1.83779e-05
9.54122e-05
0.000104526
0.000114861
0.000112511
7.49807e-05
0.000102712
6.94321e-05
0.000107189
0.000103566
0.000104353
7.31611e-05
7.15202e-05
0.000114748
2.42358e-05
5.04766e-05
0.000114842
0.000116263
0.000115469
0.000110107
1.10792e-05
7.1823e-05
7.26498e-05
3.22316e-05
0.000107531
8.94577e-05
9.76936e-05
0.000101813
4.16382e-05
0.000101103
6.2653e-05
6.55322e-05
0.000115883
5.92643e-05
0.000106036
9.56191e-05
6.12041e-05
5.53384e-05
0.000112222
4.42313e-05
3.132e-05
0.000112844
8.9851e-05
0.000110596
0.000106882
1.49545e-05
8.46231e-05
7.13359e-05
0.000110573
0.000107936
0.00010869
0.000107478
0.000113192
6.74538e-05
0.000108016
5.64773e-05
8.79961e-05
0.000106702
9.74517e-05
6.70012e-05
6.53812e-06
9.62083e-05
0.000112303
0.000117147
9.409e-05
9.46877e-05
3.05853e-05
0.000108259
9.41994e-05
6.79144e-05
8.6556e-05
5.24543e-05
0.000103003
0.00010787
0.000107891
9.61522e-05
8.64178e-05
0.000111205
0.000108429
6.60004e-05
6.55312e-05
4.69442e-05
3.18241e-05
8.9916e-05
0.00010728
0.000102644
7.14971e-05
9.31513e-05
0.0001076
6.26365e-05
0.000112559
5.63193e-05
1.89783e-05
6.29215e-05
0.000112109
5.71648e-05
0.000102946
9.18485e-05
8.06737e-05
0.000100547
9.21789e-05
9.15733e-05
8.38916e-05
8.17633e-05
9.30769e-05
1.61287e-05
0.000112283
0.000112102
4.79276e-05
0.000114162
4.5873e-05
5.70293e-05
7.57554e-05
0.000116821
0.00010848
3.23339e-05
2.69542e-05
8.80624e-05
0.000105718
0.000107291
0.000100209
7.31125e-05
3.9656e-05
0.000115376
0.000115255
8.92498e-06
9.06243e-05
3.71705e-05
9.29296e-05
0.000111712
0.000111338
0.000108246
0.000103553
0.000111465
7.34409e-05
0.000105117
9.84048e-05
9.84698e-05
5.24119e-05
8.59193e-05
9.84162e-05
0.000112563
7.30493e-05
8.62683e-05
8.65138e-05
7.09568e-05
7.29165e-05
7.2359e-05
5.84455e-05
0.000111462
0.000113075
9.76008e-05
9.44198e-05
8.86911e-05
8.81105e-05
7.24165e-05
8.23273e-05
0.000113017
0.000111732
0.000103584
9.70861e-05
9.80315e-05
7.20705e-05
0.000115341
0.000115234
0.000112462
7.13616e-05
9.53781e-05
9.66823e-05
9.64991e-05
9.7211e-05
3.11853e-05
0.000110554
0.00011339
2.36034e-05
2.05766e-05
9.96814e-05
0.000114005
0.000113767
7.05701e-05
0.00011233
9.99973e-05
4.02992e-05
9.82406e-05
0.000100758
0.000114754
0.000114653
0.000114123
0.000113028
6.83631e-05
0.000110907
6.46085e-05
6.53232e-05
0.000103594
8.56826e-05
0.000110905
7.31314e-05
9.83742e-05
9.6156e-05
2.93946e-05
3.82431e-05
6.90116e-05
2.05931e-05
9.36776e-05
1.84961e-05
9.70707e-05
0.000111083
3.60961e-05
8.12695e-05
8.09695e-05
0.000114232
7.63599e-05
0.000106864
0.00011324
1.33129e-05
0.000111872
0.00011449
0.000115743
0.000105761
0.000105469
7.87369e-05
0.000109812
0.000116391
7.74973e-05
0.000112923
0.000112856
6.47595e-05
6.63335e-05
0.000112744
7.34757e-05
0.000115442
0.000114521
0.000113727
0.000113948
3.22168e-05
0.000114481
0.000111854
2.04655e-05
3.49052e-05
8.46355e-05
0.000110273
8.63611e-05
0.000103367
9.83307e-05
8.92629e-05
0.000103007
0.000101379
0.000112251
0.000111965
0.000102928
0.00011263
0.000116786
0.000115405
6.73911e-05
0.000114176
0.00011356
0.00011359
7.94069e-05
8.0954e-05
0.00011351
9.39566e-05
0.000114471
0.000111687
0.000100337
0.000116949
5.0345e-05
7.81844e-05
0.000110605
9.93456e-05
0.000100368
6.21229e-05
8.84917e-05
9.62138e-05
0.000111589
5.28846e-05
0.000101536
0.000114027
0.000115507
0.000115587
0.000108162
0.000116015
0.000113044
6.13792e-05
0.000113598
0.000108033
0.000110915
8.82571e-05
0.000116151
7.73124e-05
6.31103e-05
0.000112714
0.000112591
0.000101574
1.51288e-05
0.000100321
7.48795e-05
8.65178e-05
9.29253e-05
9.33522e-05
9.33043e-05
7.08247e-05
9.61883e-05
0.000115852
0.000114419
8.6012e-05
0.000103827
8.00325e-05
7.71123e-05
0.00011109
9.09809e-05
8.98379e-05
8.62202e-05
7.45784e-05
0.000108259
9.73055e-05
0.000108355
0.000116383
8.55133e-05
0.000114437
0.000114046
0.000114005
2.53841e-05
8.77251e-05
8.73949e-05
1.53196e-05
7.49866e-05
5.95555e-05
0.000107105
0.000110099
0.000112095
9.3003e-05
4.60936e-05
4.7477e-05
0.000111735
9.14587e-05
0.000114761
4.72336e-05
0.000115126
0.000115107
0.000112515
0.000102659
7.46725e-05
2.01339e-05
4.14758e-05
8.23685e-05
8.52188e-05
0.000109628
2.94495e-05
3.03691e-05
3.8393e-05
0.000113322
0.000113454
0.000107621
9.55095e-05
7.78381e-05
8.44962e-05
7.40673e-05
6.37801e-05
8.29116e-05
5.14295e-05
0.000100429
0.00010989
0.000103856
0.000103551
0.000114422
5.27769e-05
7.9292e-05
0.000108059
6.7099e-05
6.38013e-05
7.08713e-05
3.82118e-05
0.000102409
0.000103146
0.000111645
6.85836e-05
8.5317e-05
0.000114256
0.000114256
8.05567e-05
8.06089e-05
3.48809e-05
0.000109518
7.32456e-05
1.79832e-05
0.000101088
6.5897e-05
3.97876e-05
1.70003e-05
0.000105817
0.000105851
4.68366e-05
0.000114392
1.57095e-05
0.000115568
0.000109922
6.22375e-05
0.000110046
0.000109846
9.29798e-05
0.000112839
5.08622e-05
6.10498e-05
9.37278e-05
8.84618e-05
0.000115605
0.000114096
9.54773e-05
3.36112e-05
4.10917e-05
0.00011448
0.000114531
0.000114374
0.00011716
6.29956e-05
0.000108438
6.02098e-05
5.97662e-05
0.000107372
0.00011287
0.000112549
0.00011473
4.49056e-05
5.22993e-05
2.02224e-05
8.67421e-05
8.64638e-05
9.63264e-05
0.000101304
9.48512e-05
0.000116946
4.00761e-05
0.000110142
9.43975e-05
0.000116771
3.31348e-05
0.000107797
7.36632e-05
5.35149e-05
5.88283e-05
2.76398e-05
9.83573e-05
0.000100983
3.46243e-05
3.8311e-05
2.15044e-05
3.2063e-05
0.000108346
6.49458e-05
5.20517e-05
5.44877e-05
0.000110903
3.11305e-05
0.000101121
0.000115593
1.0826e-05
0.000110332
8.21971e-05
3.66487e-05
9.03724e-05
6.90189e-05
9.75648e-05
9.22351e-05
3.9919e-05
0.000112594
0.000109002
0.000111131
0.00010759
0.000114548
0.000117096
3.06029e-05
9.45564e-05
0.000111162
6.72257e-05
6.03433e-05
0.00011136
0.000111665
0.000103353
8.09568e-05
0.000109567
0.000113157
0.0001131
0.000115223
0.000110099
4.04121e-05
4.31534e-05
9.29038e-05
0.000109879
0.000112642
0.000112717
0.000113693
0.000113311
9.37312e-05
0.000113961
0.000100331
0.000100597
0.000101789
0.000107432
3.13705e-05
0.000116486
0.000109441
3.80419e-05
0.000112336
6.57925e-05
0.000110615
5.01144e-05
0.000113695
0.0001157
0.000110947
6.12311e-05
5.7931e-05
0.000113862
0.000115965
0.000110227
0.000111671
2.07116e-05
6.35581e-05
0.000104196
0.000100889
9.74181e-05
9.57887e-05
0.000110756
0.000116628
0.00010049
0.000113675
9.67936e-05
0.000115459
0.000102254
0.000102163
0.00011012
9.01001e-05
0.000106166
8.73332e-05
0.000107931
2.13772e-05
5.64102e-05
0.000110649
4.25228e-05
8.29377e-05
7.57642e-05
2.28605e-05
0.00010774
9.32173e-05
0.000114174
0.000108919
7.01618e-05
7.7779e-06
0.000105875
0.000111288
6.77389e-05
4.11065e-05
5.94338e-05
5.84004e-05
6.22228e-05
8.478e-05
0.000108508
0.000112352
9.24009e-05
7.06738e-05
0.000105237
0.000113851
0.000109778
9.87302e-05
0.000109482
9.55032e-05
1.01874e-05
0.000108512
8.05283e-05
7.85232e-05
4.95771e-05
7.00358e-05
0.000117065
0.000117102
0.000100435
1.64134e-05
7.04009e-05
0.000113219
3.53814e-05
0.000110069
0.000113553
4.73436e-05
5.00078e-05
2.05158e-05
6.11326e-05
0.000116187
0.00011327
9.78959e-05
0.000115413
0.000107923
9.2445e-05
0.000116284
0.000111825
0.000101493
0.000113278
5.79863e-05
0.000113744
4.22712e-05
4.3382e-05
6.41971e-05
9.5146e-05
0.000114118
0.000106647
0.000103568
2.84114e-05
0.000115622
0.000113624
8.82378e-05
8.91027e-05
8.12067e-05
7.81465e-05
0.000102737
0.000103402
9.61845e-05
0.000114451
4.17773e-05
0.000108202
1.70748e-05
9.191e-05
0.000105635
3.5684e-05
0.000113561
0.000113238
0.000111296
0.000114457
0.000114511
0.000113985
0.000104734
0.000117171
9.98987e-05
8.95643e-05
0.000115814
9.87582e-05
0.000110427
5.72121e-05
6.36107e-05
7.01023e-05
0.000100281
0.000116771
0.000116823
6.65152e-05
9.11126e-05
0.000112749
0.000100829
0.000108423
2.96216e-05
4.97156e-05
5.33852e-05
5.30075e-05
0.000116909
9.71941e-05
9.91394e-05
8.19226e-05
0.000108003
0.000110714
0.000114208
0.000114383
3.43479e-05
3.28295e-05
6.64646e-05
5.97043e-05
0.000114205
0.000111522
9.64476e-05
1.43348e-05
0.000112941
5.17562e-05
8.11976e-05
6.97377e-06
7.85822e-05
7.61651e-05
0.000100443
3.99227e-05
0.000104446
0.000104057
0.000104464
9.95428e-05
9.18083e-05
0.000110277
0.000113389
6.20264e-05
0.000115308
0.000116071
5.36144e-05
0.000110087
5.99805e-05
9.75913e-05
9.69518e-05
0.000111173
0.000111449
8.28759e-05
0.000105901
0.000107362
0.000107784
5.38177e-05
7.40677e-05
7.59578e-05
0.000108939
2.65047e-05
0.000106924
6.78605e-05
7.06089e-05
0.000106091
9.93682e-05
0.000112345
1.26374e-05
0.000109859
0.000109496
9.13275e-05
3.24033e-05
0.000114413
0.000111395
9.26892e-05
0.000115886
9.28021e-05
0.00011043
8.7748e-05
0.000111664
6.13117e-05
5.32354e-05
5.45095e-05
0.000112889
6.56343e-05
0.00010512
9.64082e-05
0.000104746
6.7382e-05
8.02957e-05
9.57383e-05
0.000114132
0.000114147
0.000108248
9.79882e-05
0.000104322
4.21019e-05
0.000115117
8.65525e-05
8.63245e-05
5.59432e-05
0.000112219
7.10151e-05
4.28752e-05
9.49958e-05
0.000112686
0.000112798
0.000107063
0.00011387
0.000116268
9.23458e-05
4.64684e-05
0.000102114
1.69374e-05
4.95546e-05
9.22048e-05
9.21007e-05
1.11233e-05
0.000116278
5.15934e-05
2.22986e-05
0.000113324
6.18069e-05
0.000110464
3.74263e-05
8.06154e-05
0.000112869
0.000114337
0.000116603
0.000113794
9.59763e-05
0.000113431
0.000110838
0.000110707
0.000113727
0.000114711
6.87976e-05
9.20421e-05
4.45297e-05
0.000102384
6.21148e-05
4.44834e-05
7.43949e-05
6.19182e-05
0.000113647
9.06816e-05
9.18427e-05
3.66692e-05
9.74504e-05
0.00011518
9.33098e-05
7.44144e-06
9.15269e-06
0.000115132
9.91926e-05
1.18768e-05
7.46244e-05
0.000112554
0.000109996
4.64805e-05
0.000102197
0.000113754
0.000114089
4.29475e-05
4.79655e-05
1.8405e-05
9.78462e-05
9.79095e-05
0.000112269
9.17577e-05
9.18016e-05
9.42989e-06
3.35618e-05
7.80743e-05
5.54173e-06
9.6341e-05
0.000114483
3.30884e-05
4.00048e-05
1.67179e-05
0.000114455
0.000112526
0.000112747
0.000115386
0.000115274
0.000107761
6.04134e-05
6.10893e-05
0.00011338
0.000113409
0.000112607
0.000113505
0.000116973
0.00011006
0.000109611
9.15585e-05
3.36808e-05
8.2052e-05
8.59502e-05
5.44943e-05
9.72387e-05
0.000113022
0.000112935
6.79063e-05
9.3061e-05
0.000113946
0.000116306
0.000117139
3.40825e-05
7.17399e-05
0.000100983
5.45175e-05
0.000112842
0.000113775
9.05689e-05
9.07024e-05
7.15007e-05
9.67174e-05
0.000104551
6.85285e-05
0.000113271
0.000108097
0.000107081
0.000106452
0.000105694
1.93167e-05
6.65666e-05
6.93048e-05
0.000105627
0.000114629
9.13426e-05
2.83184e-05
2.20661e-05
2.39612e-05
6.45803e-05
4.98578e-05
0.000111285
0.000112888
0.000103629
2.68434e-05
0.000103728
0.000115798
0.000113986
9.68002e-05
0.000114807
0.000116813
0.000116895
9.87536e-05
0.000111258
0.000108021
3.04811e-05
0.000111989
0.000111042
6.62987e-05
7.54907e-05
9.62388e-05
0.000103673
0.000103447
0.000110865
9.20556e-05
0.000110998
3.72813e-05
7.28765e-05
7.39992e-05
8.56091e-05
8.60063e-05
8.06093e-05
7.86455e-05
6.65847e-05
8.96637e-05
3.17324e-05
3.5128e-05
0.000115843
0.000115326
0.000115459
0.00011504
1.23384e-05
1.09572e-05
0.0001066
0.000103971
8.64173e-05
5.75896e-05
4.93748e-05
0.00010609
8.89825e-05
0.0001008
0.000108153
5.73951e-06
4.17044e-05
8.56863e-05
0.000101614
0.00010185
8.77703e-05
0.000113921
0.000115207
5.67611e-06
6.23608e-06
0.000113923
3.98714e-05
0.000110344
6.97372e-05
5.33753e-05
9.19331e-05
0.000109004
0.000102575
6.16897e-05
6.16561e-05
0.000113521
9.97481e-05
0.000108866
3.11449e-05
0.000115141
6.27715e-05
6.38022e-05
0.000110845
8.48231e-05
0.000108694
0.00010212
0.000101852
4.87504e-05
6.95103e-05
3.24485e-05
1.50392e-05
1.52958e-05
1.43818e-05
0.000114207
0.000114217
9.8413e-05
0.000100619
0.000110784
0.000112477
0.000112686
9.46548e-05
8.11695e-05
1.52031e-05
0.000114732
0.000112393
8.76895e-05
9.50457e-05
9.49031e-05
5.74147e-05
9.61614e-05
0.000107109
7.36873e-05
0.000108785
0.000112849
0.000115258
0.000111522
4.97385e-06
8.09795e-05
0.000117153
0.000103245
0.000102367
9.55853e-05
0.000103359
0.000103513
6.98385e-05
4.54564e-05
0.000103067
8.11907e-05
9.94411e-05
0.000100448
0.000108286
8.66663e-05
9.65009e-05
8.65279e-05
8.56512e-05
6.72889e-05
0.000113229
0.000108387
0.000114259
0.000115011
3.18052e-05
0.000104004
5.85864e-05
6.264e-05
0.000104026
8.2925e-05
0.00010965
9.56561e-05
6.30233e-05
7.20732e-05
1.21674e-05
6.98048e-05
5.16805e-05
0.000114666
0.000109626
0.000112417
9.42875e-06
8.38858e-06
0.000114162
9.57788e-05
5.10708e-05
0.00010063
0.000103367
0.000102641
0.000116523
0.000110319
7.30042e-05
7.72352e-05
7.88115e-05
0.000117079
0.000115594
0.000111103
0.000111172
0.000106564
0.000105702
6.61869e-05
8.25237e-05
6.6815e-05
9.57393e-05
0.000100207
9.54883e-05
0.000114473
0.000112787
0.000113947
0.000113829
0.000112319
0.000114337
3.04803e-05
8.48697e-05
8.81813e-05
0.000107375
0.000107144
0.000109636
3.30042e-05
6.24828e-05
8.50157e-05
8.67502e-05
2.06287e-05
8.02178e-05
5.07589e-05
9.84368e-05
6.50247e-05
6.56824e-05
6.05663e-05
0.000112596
0.000114113
0.000115379
0.000112869
0.000107552
7.33199e-05
7.17699e-05
0.000101891
0.000103808
5.99626e-05
3.24057e-05
3.51625e-05
0.000105871
7.72068e-05
7.72161e-05
3.36967e-05
3.64097e-05
0.00011226
4.40782e-05
4.55545e-05
5.52883e-05
0.00011157
0.000106077
1.42581e-05
5.40525e-05
0.000103605
0.000101531
6.82047e-05
7.7071e-05
9.58527e-05
0.000114084
2.52402e-05
7.6449e-05
9.19562e-05
1.94472e-05
0.000105787
0.000107588
9.28276e-05
9.91021e-05
0.000114854
0.000114787
0.000108264
6.94831e-05
5.91428e-05
7.76733e-05
0.000101559
0.000112445
6.59601e-05
8.78003e-05
0.000110218
0.000102985
2.49683e-05
6.77032e-05
8.95267e-05
6.76444e-05
3.25129e-05
8.93895e-05
5.62385e-05
0.000103386
9.4412e-05
0.000114603
8.82811e-05
0.000108574
0.000111617
8.58473e-05
9.60307e-05
4.88243e-05
4.64182e-05
6.68456e-05
8.84509e-05
7.81794e-05
1.7184e-05
0.000103355
9.79549e-05
0.000102098
1.65519e-05
9.23503e-05
0.000107109
0.000115586
0.00011546
0.000111709
5.55089e-05
0.000101811
2.95606e-05
2.70486e-05
9.28588e-05
0.000109549
0.000113116
0.00011211
0.000112449
0.000110159
0.000110072
0.000107251
7.13596e-05
0.000114189
0.000108982
9.25826e-05
9.79762e-05
0.000114833
0.000114134
0.000107678
0.000108975
8.99246e-05
9.59146e-05
0.000109427
0.000114387
2.88273e-05
7.41712e-05
1.07596e-05
1.86829e-05
1.78152e-05
0.000100849
0.000102496
0.000102563
0.000103575
0.000106607
2.29675e-05
0.00010427
3.46546e-05
3.46026e-05
8.61106e-05
7.24154e-05
0.000116778
7.99993e-05
0.000109026
7.91913e-05
1.25007e-05
0.000102736
5.79896e-05
0.000108645
0.000106587
0.000114651
0.000114405
8.29739e-05
9.39286e-05
0.000114054
5.45264e-05
7.57239e-05
9.25797e-05
7.25468e-05
3.26636e-05
2.78679e-05
0.000100606
0.00010862
0.000111728
0.000108997
9.68975e-05
0.000106606
1.43027e-05
0.000116279
0.000116347
3.1515e-05
0.000113815
1.95009e-05
4.50643e-05
0.000113282
0.000114104
0.000106594
0.000105888
0.000109767
8.8452e-05
8.83843e-05
0.000114125
0.000113084
0.000112736
9.7064e-05
9.45405e-05
0.000115327
0.00011537
0.000112513
9.66389e-05
3.30904e-05
9.98769e-05
0.000111257
0.000106054
2.75394e-05
9.44005e-05
9.63271e-05
4.01473e-05
8.70998e-05
8.37577e-05
9.45919e-05
6.06995e-05
0.000111924
0.000110894
0.000110656
7.208e-06
0.000111735
0.000114007
2.72753e-05
2.84151e-05
7.33264e-05
7.88447e-05
7.92761e-05
0.000111556
9.60316e-05
7.27748e-05
0.000110955
3.52829e-05
0.000106104
3.05981e-05
9.35483e-05
9.32837e-05
7.05789e-05
6.80968e-05
0.000113388
0.000106527
0.000105969
0.000103315
8.19085e-05
6.81439e-05
0.000116074
6.45163e-05
0.000109361
0.000115117
0.000104686
3.03195e-05
0.000106792
0.000108014
0.000104637
7.72908e-05
6.674e-06
0.000114653
8.70819e-05
0.000115992
1.38952e-05
0.000117097
3.60456e-05
9.15352e-05
8.63357e-05
3.34849e-05
0.000104213
0.000114321
3.99261e-05
4.35601e-05
3.57008e-05
8.10751e-05
4.44511e-05
5.09574e-05
3.27454e-05
7.10897e-05
0.000112563
0.000113809
9.26302e-05
2.48364e-05
2.67524e-05
5.67168e-05
9.21746e-05
0.000111428
0.000115626
0.000115724
6.88517e-05
9.63168e-05
3.3987e-05
3.52049e-05
3.64134e-05
0.000117078
0.000107895
0.000101739
0.000108282
0.000114207
0.000114204
9.81759e-05
9.91658e-05
6.57374e-05
6.67365e-05
4.24926e-05