/*--------------------------------*- C++ -*----------------------------------*\
  =========                 |
  \\      /  F ield         | OpenFOAM: The Open Source CFD Toolbox
   \\    /   O peration     | Website:  https://openfoam.org
    \\  /    A nd           | Version:  7
     \\/     M anipulation  |
\*---------------------------------------------------------------------------*/
FoamFile
{
    version     2.0;
    format      ascii;
    class       surfaceScalarField;
    location    "6";
    object      phi;
}
// * * * * * * * * * * * * * * * * * * * * * * * * * * * * * * * * * * * * * //

dimensions      [0 3 -1 0 0 0 0];

internalField   nonuniform List<scalar> 
19623
(
-6.55875e-07
7.2675e-07
-7.0875e-08
7.8815e-07
-6.09638e-07
-1.78513e-07
2.3125e-07
-5.7125e-07
3.4e-07
-6.645e-07
6.546e-07
9.9e-09
-4.12e-07
6.47e-07
-2.35e-07
-4.17225e-07
6.76913e-07
-2.59688e-07
2.86625e-07
-7.0385e-07
-1.32975e-07
-5.253e-07
6.58275e-07
-6.33687e-07
4.5235e-07
1.81337e-07
8.3e-07
-4.57375e-07
-3.72625e-07
6.68e-07
1.62e-07
-8.3125e-08
-4.1475e-07
4.97875e-07
-4.61875e-07
7.46375e-07
-2.845e-07
-2.32375e-07
5.97875e-07
-3.655e-07
7.7675e-07
-5.37375e-07
-2.39375e-07
7.16475e-07
-3.265e-07
-3.89975e-07
5.90687e-07
-7.11325e-07
1.20638e-07
3.87675e-07
2.37325e-07
3.34212e-07
3.54138e-07
-6.8835e-07
5.896e-07
-2.55388e-07
-7.75045e-07
4.84633e-07
2.90413e-07
-5.80625e-07
-1.68375e-07
7.49e-07
-5.62875e-07
-9.5e-09
5.72375e-07
-8.17713e-07
4.75238e-07
3.42475e-07
6.2775e-07
-6.3175e-07
3.99999e-09
-4.9e-08
6.7675e-07
-6.74675e-07
5.57125e-08
6.18962e-07
-3.35213e-07
-4.825e-07
-4.56e-07
3.72875e-07
-1.35587e-07
-5.33888e-07
6.69475e-07
-6.47837e-07
5.1225e-07
-2.56625e-07
6.45513e-07
-3.88888e-07
-6.8775e-07
5.9225e-07
9.55e-08
3.5475e-07
1.67e-07
-5.2175e-07
6.635e-07
-3.0875e-07
5.095e-07
2.6725e-07
6.90125e-07
-3.90875e-07
-2.9925e-07
-2.365e-07
6.44e-07
-4.075e-07
-6.90125e-07
3.7625e-08
6.525e-07
-7.13575e-07
3.891e-07
3.24475e-07
2.57675e-07
3.64125e-07
-6.218e-07
-2.46038e-07
5.03713e-07
2.656e-07
-6.39338e-07
3.73738e-07
4.86538e-07
-7.04463e-07
2.17925e-07
3.7075e-07
3.155e-07
-6.8625e-07
6.09125e-07
-6.96375e-07
8.725e-08
8.045e-07
-3.77875e-07
-4.26625e-07
-2.34125e-07
6.45325e-07
-4.112e-07
4.281e-07
-6.62225e-07
7.4825e-07
-4.6525e-07
-2.83e-07
4.7375e-07
-6.4975e-07
1.76e-07
-4.55e-08
5.1925e-07
-2.2925e-07
6.36125e-07
-4.06875e-07
3.475e-08
4.8875e-07
-5.235e-07
7.375e-07
-7.0875e-08
-6.66625e-07
4.0375e-08
-5.04125e-07
4.6375e-07
4.65125e-07
-6.6275e-07
1.97625e-07
-6.275e-07
5.77125e-07
5.0375e-08
3.205e-07
4.17e-07
5.72625e-07
-7.565e-07
1.83875e-07
7.23125e-07
-6.34375e-07
-8.875e-08
2.3625e-08
-5.2625e-07
5.02625e-07
-7.11162e-07
2.67575e-07
4.43587e-07
-5.025e-07
-2.3475e-07
7.3725e-07
3.64125e-07
-6.8775e-07
3.23625e-07
7.3225e-07
-3.68125e-07
4.25225e-07
2.9125e-07
6.615e-07
-5.63e-07
-9.85e-08
-5.55125e-07
1.43125e-07
7.75875e-07
-4.5475e-07
-3.21125e-07
4.50125e-07
7.8625e-08
-5.2875e-07
4.82375e-07
1.7025e-07
-6.52625e-07
7.3625e-07
-7.3625e-07
5.04375e-07
1.57125e-07
5.37163e-07
1.17375e-07
-6.54538e-07
-4.195e-07
6.39625e-07
-2.20125e-07
4.05638e-07
1.99362e-07
-6.05e-07
5.21088e-07
-4.55625e-08
-4.75525e-07
-3.69375e-07
6.35e-07
-2.65625e-07
-6.775e-07
3.08125e-07
-5.93838e-07
-1.39887e-07
7.33725e-07
3.35e-08
-5.7925e-07
5.4575e-07
7.10438e-07
-9.67625e-08
-6.13675e-07
1.196e-07
5.90837e-07
5.02338e-07
3.4825e-08
7.86875e-07
-6.3375e-07
-1.53125e-07
2.53125e-07
5.3375e-07
-6.56e-07
1.16875e-07
5.39125e-07
7.45625e-07
-3.01375e-08
-7.15487e-07
1.70862e-07
5.74762e-07
3.49875e-07
-6.1075e-07
2.60875e-07
5.47875e-07
-4.4425e-07
-1.03625e-07
7.545e-07
-6.3425e-07
-1.2025e-07
4.72625e-07
2.81875e-07
3.4125e-07
2.22625e-07
-5.63875e-07
-1.661e-07
5.64812e-07
-3.98712e-07
-5.20125e-07
-6.2625e-08
5.8275e-07
-3.7375e-07
-3.14e-07
3.50512e-07
-5.16612e-07
3.91375e-07
2.79125e-07
-6.705e-07
6.26375e-07
-2.35e-07
-4e-09
5.9265e-07
-5.8865e-07
-1.245e-07
5.4325e-07
-4.1875e-07
5.29125e-07
1.4225e-07
-6.71375e-07
-6.39488e-07
1.35375e-07
5.04113e-07
-6.2125e-08
3.84125e-07
-3.22e-07
-5.5375e-07
6.08875e-08
4.92863e-07
-1.24125e-07
6.42125e-07
-5.18e-07
1.06875e-07
-5.26375e-07
-6.90125e-07
-5.27125e-07
-3.87375e-08
5.65863e-07
-3.449e-07
6.79875e-07
-3.34975e-07
2.88513e-07
-6.33413e-07
2.25625e-07
-5.4475e-07
3.19125e-07
-4.88512e-07
3.64012e-07
-1.375e-07
-4.56625e-07
5.94125e-07
-3.80375e-07
4.15125e-07
6.84625e-07
-4.94125e-07
-1.905e-07
5.47e-07
-1.62495e-09
-5.45375e-07
3.0225e-07
-5.3725e-07
2.35e-07
-2.675e-07
5.6975e-07
-6.92875e-07
6.92875e-07
-8.87875e-08
6.43388e-07
-5.546e-07
1.20563e-07
4.80913e-07
-6.01475e-07
4.35625e-07
-6.5875e-07
2.23125e-07
6.5625e-07
-2.20625e-07
-4.91289e-07
-2.83756e-07
4.511e-07
1.8525e-07
-6.3635e-07
1.25864e-07
3.86447e-07
-5.12311e-07
5.52375e-07
-8.725e-08
-5.00875e-07
-1.24125e-07
-4.882e-07
-1.368e-07
5.70763e-07
8.3875e-08
-6.54638e-07
-7.02788e-07
5.69863e-07
1.32925e-07
-3.37875e-07
5.635e-07
3.6975e-07
-6.75525e-07
3.05775e-07
5.97313e-07
-1.91675e-07
2.24362e-07
4.32475e-07
-6.56837e-07
4.40575e-07
1.90488e-07
-6.31063e-07
-2.01375e-07
5.42625e-07
-4.89e-07
-8.95001e-08
-5.4425e-07
-6.5775e-07
5.6825e-07
-4.20375e-07
-2.64125e-07
6.845e-07
2.755e-07
-6.95875e-07
-2.426e-07
-3.9515e-07
6.3775e-07
-7.09e-07
1.5775e-07
5.5125e-07
7.63e-07
-5.6425e-07
-1.9875e-07
-3.56938e-07
-1.90462e-07
5.474e-07
7.25763e-07
1.4675e-08
-7.40437e-07
-1.33e-07
-5.06375e-07
6.39375e-07
-5e-07
-1.8775e-07
-5.50625e-07
5.0625e-08
-6.28e-07
1.72e-07
-6.39862e-07
7.36525e-07
-9.66625e-08
4.29125e-07
-3.8875e-07
-4.0525e-07
7.08125e-07
-3.02875e-07
4.92962e-07
-1.60075e-07
-3.32887e-07
2.07025e-07
5.81125e-07
5.0575e-07
1.09125e-07
-6.14875e-07
-2.20875e-07
7.26625e-07
3.815e-07
-6.18e-07
-5.823e-07
3.18337e-07
2.63962e-07
-3.50625e-07
7.37125e-07
-3.865e-07
3.75613e-07
2.95113e-07
-6.70725e-07
7.28625e-07
-3.56875e-07
-3.7175e-07
-1.34375e-07
-4.22e-07
5.56375e-07
-5.025e-07
5.46125e-07
1.825e-07
-7.44e-07
3.64375e-07
3.79625e-07
-5.58125e-07
-1.615e-07
7.19625e-07
4.3625e-07
2.66125e-07
-7.02375e-07
6.79e-07
-2.4275e-07
6.075e-07
-1.57375e-07
5.99675e-07
-1.8435e-07
-4.15325e-07
4.97125e-07
3.35e-08
-5.30625e-07
3.3e-07
-6.5575e-07
3.2575e-07
5.3475e-07
-1.84875e-07
-4.55875e-07
-1.8425e-07
6.40125e-07
5.99289e-07
-4.73425e-07
-6.95625e-07
8.375e-08
6.11875e-07
3.26125e-07
4.065e-07
-7.32625e-07
4.06e-07
2.19e-07
6.96925e-07
-4.72563e-07
-7.726e-07
2.86388e-07
4.86212e-07
1.48375e-07
-7.18375e-07
5.7e-07
-5.09125e-07
6.575e-07
-1.1975e-07
6.16875e-07
-4.9735e-07
6.12262e-07
-1.14912e-07
4.745e-07
2.55375e-07
-7.29875e-07
2.66313e-07
-6.56912e-07
3.906e-07
4.11e-07
1.36875e-07
-5.86125e-07
6.05537e-07
-1.94125e-08
5.6975e-07
-7.0475e-07
1.35e-07
5.47625e-07
-7.5425e-07
2.06625e-07
-8.615e-08
5.24212e-07
-4.38062e-07
6.87e-07
-3.60875e-07
-7.53e-07
4.77125e-07
2.75875e-07
-3.185e-07
7.18625e-07
-4.00125e-07
5.7775e-07
-7.24525e-07
1.46775e-07
-4.3575e-07
-9.075e-08
5.265e-07
1.9925e-07
-7.04112e-07
4.18437e-07
2.85675e-07
2.42e-07
5.0625e-07
-6.045e-07
4.67e-07
-3.45875e-07
6.4325e-07
-2.97375e-07
-5.0205e-07
-2.7055e-07
-3.00125e-07
-3.24875e-07
-5.1925e-07
-4.7e-08
5.6625e-07
-2.5425e-07
-2.67e-07
5.2125e-07
-3.67625e-07
5.98875e-07
-3.01e-07
-3.24e-07
3.82825e-07
2.781e-07
-6.60925e-07
-8.16625e-07
4.8775e-07
3.28875e-07
-7.17101e-07
7.17101e-07
2.8375e-08
-4.92625e-07
4.6425e-07
-4.7925e-07
2.225e-08
4.57e-07
-7.1575e-07
1.965e-07
-5.51875e-07
-1.9375e-08
-4.924e-07
-1.326e-07
-1.91e-07
5.6175e-07
-1.22125e-07
-4.29375e-07
5.515e-07
-1.38463e-07
-1.375e-07
5.78075e-07
-7.34438e-07
5.77412e-07
1.57025e-07
7.62375e-07
-7.225e-08
4.98375e-07
-1.17875e-07
-3.805e-07
6.67762e-07
-2.80088e-07
7.241e-07
-5.20337e-07
-2.03763e-07
-1.8425e-07
-5.21e-07
7.0525e-07
6.46e-07
-5.72625e-07
-7.3375e-08
-7.33875e-07
5.325e-07
-8.3625e-08
-6.5025e-07
3.25375e-07
-5.5775e-07
1.45625e-07
-6.015e-07
-2.44025e-07
-4.3065e-07
-4.80338e-07
7.45938e-07
2.6625e-07
3.34875e-07
-6.01125e-07
-4.29888e-07
6.96138e-07
1.27125e-07
4.65125e-07
6.875e-07
-1.24125e-07
-5.63375e-07
-1.3275e-07
8.2025e-07
-2.3e-07
-4.09875e-07
6.39875e-07
8.575e-07
-5.99625e-07
-2.57875e-07
4.8125e-07
3.7625e-07
6.7175e-07
-7.3875e-08
4.6625e-07
-7.83625e-07
3.17375e-07
5.78625e-07
-1.12375e-07
5.9e-07
-7.91375e-07
2.01375e-07
-6.30637e-07
6.45025e-07
-1.43875e-08
4.63125e-07
1.0875e-07
-5.71875e-07
-6.81335e-07
4.97749e-08
6.3156e-07
7.27375e-07
-4.39625e-07
-2.8775e-07
5.33625e-07
1.9375e-07
2.16963e-07
-6.09387e-07
3.92425e-07
2.6075e-07
2.96875e-07
-5.57625e-07
8.1925e-08
-5.00263e-07
4.18338e-07
-6.3425e-07
1.33375e-07
-6.21538e-07
1.33337e-07
2.52512e-07
3.77038e-07
-6.2955e-07
-7.9225e-07
5.0275e-07
2.895e-07
3.8305e-07
-5.54537e-07
1.71487e-07
6.34625e-07
-7.60875e-07
1.2625e-07
-4.17637e-07
-2.03975e-07
6.21612e-07
6.146e-07
-3.685e-08
-4.789e-07
-1.26837e-07
6.05738e-07
2.805e-07
3.11238e-07
-5.53838e-07
6.805e-07
1.00003e-09
-6.815e-07
-2.623e-07
-2.154e-07
4.777e-07
6.71125e-07
-3.69613e-07
-3.01513e-07
4.806e-07
1.90525e-07
2.5825e-07
4.78e-07
7.1625e-08
5.05125e-07
-5.7675e-07
6.01e-07
1.05e-08
-6.115e-07
-4.66125e-07
6.775e-07
-2.11375e-07
-5.06125e-07
7.5225e-07
-2.46125e-07
9.7125e-08
-6.0325e-07
5.44625e-07
2.3125e-07
2.98125e-07
2.563e-07
-5.54425e-07
3.61688e-07
-6.23525e-07
2.61837e-07
-7.13625e-07
4.27125e-07
2.865e-07
-2.82375e-07
-4.3125e-07
-3.05e-08
5.59625e-07
-6.0075e-07
5.5575e-07
4.5e-08
-6.70875e-07
4.11875e-07
2.59e-07
-3.29875e-07
-3.41e-07
5.8085e-07
3.13875e-08
-6.12238e-07
-2.49e-07
-4.905e-07
7.395e-07
4.715e-07
2.6875e-08
3.13525e-07
2.07563e-07
4.68563e-07
-6.7655e-07
2.07987e-07
-7.60375e-07
4.74625e-07
2.8575e-07
-5.06375e-07
5.86e-07
-7.9625e-08
-5.225e-07
2.602e-07
-5.72e-07
6.33e-07
-6.1e-08
1.68875e-07
4.88e-07
-6.56875e-07
6.935e-07
-5.24625e-07
-7.01125e-08
-5.57375e-07
6.27487e-07
-6.02225e-07
5.32113e-07
5.87425e-07
-3.27887e-07
-2.59537e-07
-5.0725e-07
-1.05625e-07
6.12875e-07
6.84837e-07
-5.28662e-07
-1.56175e-07
5.28663e-07
1.56175e-07
-4.45375e-07
-2.22025e-07
6.674e-07
6.01325e-07
-1.08362e-07
6.29875e-07
-5.3475e-07
-9.5125e-08
-4.87375e-07
7.07625e-07
-2.2025e-07
-5.48163e-07
-1.16337e-07
-1.64625e-08
6.03887e-07
-6.4625e-07
4.55e-08
7.06762e-07
-4.36725e-07
-2.70037e-07
6.5595e-07
-7.6245e-07
1.065e-07
-5.65825e-07
5.7265e-07
-6.82499e-09
6.1675e-07
-2.1075e-07
5.19625e-07
-6.08412e-07
7.2365e-07
-2.04025e-07
-7.45125e-07
-7.15e-08
-1.77038e-07
-5.79337e-07
7.56375e-07
2.37875e-07
-6.89e-07
4.51125e-07
-2.9775e-07
5.86375e-07
-2.88625e-07
2.50375e-07
-6.14875e-07
3.645e-07
7.8925e-07
-2.14125e-07
-5.75125e-07
1.8775e-07
6.015e-07
-1.28e-07
5.92e-07
-4.64e-07
5.4075e-07
-7.45125e-07
2.04375e-07
-4.57437e-07
6.63787e-07
-2.0635e-07
6.10375e-07
-6.81125e-07
7.075e-08
-3.96137e-07
-1.453e-07
5.41437e-07
6.2975e-08
6.62788e-07
7.87375e-07
-4.65e-07
-3.22375e-07
2.5e-07
5.45625e-07
-9.9e-08
-4.46625e-07
4.2175e-07
1.23875e-07
-5.38875e-07
1.875e-08
-3.3975e-07
6.945e-07
-3.5475e-07
3.79625e-07
-7.19375e-07
-1.50412e-07
5.22575e-07
-3.72162e-07
4.49975e-07
2.56787e-07
3.98876e-08
4.80138e-07
-5.20025e-07
5.5695e-07
-2.58825e-07
-5.1795e-07
-1.93212e-07
6.72947e-07
-5.85424e-07
-8.75237e-08
6.99e-07
-6.4375e-08
-6.34625e-07
5.57501e-08
6.4325e-07
5.95225e-07
-2.817e-07
7.09375e-07
-3.73875e-07
-3.355e-07
6.24875e-07
8.45e-08
-1.1225e-07
5.2825e-07
-4.16e-07
-3.492e-07
6.84763e-07
-3.35563e-07
-6.66375e-07
3.17175e-07
-6.38e-07
5.03625e-07
4.64625e-07
2.98375e-07
6.11875e-07
-5.81e-07
-3.0875e-08
1.01e-07
5.10875e-07
4.4225e-07
-6.62125e-07
2.19875e-07
-1.26e-07
5.16125e-07
-3.90125e-07
-4.885e-07
3.625e-07
1.10625e-07
4.90375e-07
-6.91112e-07
5.7075e-07
1.20362e-07
-6.7e-07
5.1675e-07
1.5325e-07
-7.4575e-07
3.2375e-07
3.525e-07
-5.985e-07
2.46e-07
5.83375e-07
4.38712e-07
1.86838e-07
-6.2555e-07
6.25008e-09
6.02875e-07
7.66875e-08
5.14e-07
2.75175e-07
3.18038e-07
-5.93213e-07
-4.53875e-07
7.2905e-07
3.70825e-07
-4.56975e-07
7.3975e-07
-5.45625e-07
-1.94125e-07
1.005e-07
-5.9375e-07
4.9325e-07
6.02138e-07
-5.20213e-07
-6.69375e-07
5.54e-07
1.15375e-07
4.01875e-07
1.17e-07
-5.18875e-07
6.7175e-07
-6.2275e-07
-4.9e-08
-3.7e-08
4.64125e-07
7.765e-07
-4.1575e-07
-3.6075e-07
-6.64963e-07
1.72563e-07
-6.4975e-07
-9.1125e-08
7.40875e-07
5.54625e-07
-7.62502e-09
2.74675e-07
4.5025e-07
-7.24925e-07
7.03875e-07
-1.5625e-07
6.93125e-07
-2.8375e-07
-4.09375e-07
3.67875e-07
-5.97875e-07
2.3e-07
2.16563e-07
-6.127e-07
-4.95363e-07
-7.03375e-07
5.59625e-07
1.4375e-07
6.86875e-07
-4.40375e-07
-2.465e-07
2.4275e-07
3.37e-07
-5.7975e-07
7.25e-07
-3.11875e-07
-4.13125e-07
-7.91837e-07
3.65412e-07
4.26425e-07
-4.5375e-07
-3.38088e-07
-5.51125e-07
-1.72737e-07
7.23862e-07
-6.47888e-07
6.98437e-07
-2.89325e-07
-4.09112e-07
1.14e-07
6.2575e-07
5.19625e-07
-4.86125e-07
-4.8075e-08
-4.47287e-07
7.455e-08
-5.04438e-07
-4.21325e-07
-1.85875e-07
6.072e-07
-6.179e-07
1.96575e-07
7.895e-07
-3.56375e-07
-4.33125e-07
-5.40625e-07
-1.37625e-07
6.7825e-07
-4.87113e-07
5.61662e-07
4.96125e-07
-6.97625e-07
2.015e-07
5.78825e-07
-1.95775e-07
-5.1975e-07
7.3825e-07
-2.185e-07
9.7925e-08
-5.55363e-07
6.93625e-07
-3.37e-07
-3.56625e-07
6.78625e-07
1.5e-08
-5.16249e-08
5.21075e-07
-4.6945e-07
7.5525e-07
-3.88125e-07
-3.67125e-07
3.30587e-07
2.19612e-07
-5.502e-07
5.55125e-07
-1.54e-07
-4.01125e-07
-1.33e-07
5.7525e-07
-7.88363e-07
2.56575e-07
5.31788e-07
4.68275e-07
1.73125e-08
-4.85588e-07
-9.6375e-08
6.1525e-07
-5.18875e-07
2.03e-07
-5.59875e-07
-1.27625e-08
-6.26725e-07
6.46875e-07
-4.8e-08
-5.98875e-07
-1.3375e-08
6.6025e-07
7.25234e-07
-3.8203e-07
-3.43204e-07
3.01e-07
4.755e-07
6.27375e-07
-6.10125e-07
-1.725e-08
-7.45163e-07
3.07275e-07
4.37888e-07
-5.6025e-07
5.6025e-07
-6.8875e-07
3.4325e-07
3.455e-07
-6.66125e-07
2.60875e-07
-6.1455e-07
7.14588e-07
-1.00038e-07
-3.54625e-08
-4.68887e-07
5.0435e-07
1.435e-07
4.97e-07
-6.405e-07
-3.72875e-07
5.0825e-07
2.89287e-07
-7.34663e-07
1.55875e-07
-7.1875e-07
5.43125e-07
-7.18625e-07
1.755e-07
-8.18e-07
1.8375e-07
-3.94325e-07
7.12675e-07
-3.1835e-07
6.26875e-07
-6.255e-07
-1.37503e-09
-3.975e-07
7.825e-07
-3.85e-07
-3.75963e-07
-4.56262e-07
3.0585e-07
5.77475e-07
-1.29988e-07
-4.47487e-07
-6.30125e-07
5.8125e-08
7.2006e-07
-7.2006e-07
-1.52375e-07
-4.64125e-07
6.165e-07
-6.75e-07
3.83875e-07
2.91125e-07
1.70325e-07
-5.98325e-07
4.28e-07
3.54e-07
3.44438e-07
-7.25025e-07
2.6365e-07
4.61375e-07
-3.40938e-07
-3.84087e-07
-1.0575e-07
-4.705e-07
5.7625e-07
-2.23163e-07
5.90425e-07
-3.67263e-07
-1.6625e-07
-3.5225e-07
5.185e-07
-3.87237e-07
6.65825e-07
-2.78587e-07
5.01375e-07
2.29e-07
-7.30375e-07
6.0725e-07
-1.28625e-07
-4.78625e-07
2.9675e-07
-5.2675e-07
6.10812e-07
1.90488e-07
-8.013e-07
5.6375e-08
-5.10875e-07
4.545e-07
-8.14994e-09
-4.377e-07
4.4585e-07
6.43125e-07
-1.54375e-07
6.422e-07
-1.60012e-07
-4.82187e-07
-1.46512e-07
-4.27712e-07
5.74225e-07
-5.7125e-07
-9.8125e-08
6.44712e-07
-1.76438e-07
3.44562e-07
-6.1885e-07
2.74287e-07
1.40312e-07
4.42225e-07
-5.82538e-07
5.80688e-07
-4.40375e-07
-2.91138e-07
5.4365e-07
7.22832e-07
-2.37491e-07
-4.85341e-07
-4.53875e-07
-3.46388e-07
-3.564e-07
3.05625e-07
-7.03125e-07
-6.52812e-07
2.95875e-07
-6.05375e-07
5.5925e-07
4.6125e-08
-4.3295e-07
-2.19863e-07
1.659e-07
4.31412e-07
6.30425e-07
-4.64525e-07
1.38875e-07
4.68375e-07
8.16e-07
-2.7275e-07
1.7485e-07
3.95912e-07
-8.33751e-08
-3.55875e-07
4.3925e-07
8.167e-07
-6.04663e-07
-2.12037e-07
-6.23e-07
-1.3e-07
-5.0375e-07
5.53625e-07
-4.9875e-08
5.26e-07
-2.75625e-07
-5.99625e-07
4.755e-07
8.525e-08
5.6075e-07
-1.76125e-07
6.0925e-07
-4.33125e-07
-2.23375e-07
-2.55e-07
4.78375e-07
-5.411e-07
7.46625e-07
-2.05525e-07
-6.79137e-07
2.615e-07
-6.15e-07
1.13125e-07
5.01875e-07
2.40625e-07
-5.59125e-07
-3.531e-07
-2.955e-07
6.486e-07
-2.46375e-08
4.49862e-07
-5.9875e-07
6.5075e-07
-5.2e-08
-5.7225e-07
6.44125e-07
-7.1875e-08
-5.10112e-07
3.64875e-07
-5.8825e-07
5.9262e-07
4.72574e-08
-6.39878e-07
-2.48682e-07
-4.68419e-07
-3.71125e-07
-2.3175e-07
6.02875e-07
5.35662e-07
-5.81225e-07
7.88738e-07
-2.25613e-07
-5.63125e-07
3.198e-07
-5.55888e-07
2.36088e-07
-2.42e-07
6.53875e-07
-7.51375e-07
5.09375e-07
-2.5475e-07
-3.6025e-07
2.7325e-07
2.45263e-07
-5.18513e-07
1.16251e-08
-5.18875e-07
-6.08125e-07
7.557e-07
-1.47575e-07
5.80125e-07
-5.8e-08
-5.22125e-07
-7.785e-07
7.57875e-07
2.0625e-08
-3.89825e-07
6.92912e-07
-3.03087e-07
6.005e-07
-5.12e-07
-8.85e-08
-4.24625e-08
-4.98637e-07
-4.66e-07
3.5375e-07
-5.1175e-07
6.4075e-07
-1.29e-07
1.865e-07
-6.9825e-07
-5.03425e-07
-4.85625e-08
5.51987e-07
8.18e-07
-6.06975e-07
-2.11025e-07
5.235e-07
2.945e-07
2.99e-07
-5.43263e-07
2.44263e-07
1.32875e-07
-4.82875e-07
3.5e-07
-6.58212e-07
2.29625e-08
6.3525e-07
-3.5975e-07
6.0775e-07
-2.48e-07
2.50125e-07
-6.09875e-07
3.16537e-07
-6.513e-07
3.34763e-07
3.54125e-07
-4.505e-07
5.38625e-07
2.6375e-08
-5.65e-07
6.04375e-07
-5.20163e-07
-8.42126e-08
-4.36875e-07
-1.5e-07
5.86875e-07
-7.5375e-07
3.16875e-07
5.00005e-09
-4.75375e-07
4.70375e-07
6.54125e-07
-2.325e-08
-6.30875e-07
6.3475e-07
1.9375e-08
-1.64113e-07
-4.49563e-07
3.57375e-07
3.0225e-07
-6.59625e-07
5.809e-07
-2.19212e-07
6.66625e-07
-2.60125e-07
-1.375e-07
5.39375e-07
2.97125e-07
4.58125e-07
4.27875e-07
-6.80125e-07
6.1375e-08
6.1875e-07
6.01513e-07
-6.05513e-07
-5.5625e-08
-5.65e-07
6.20625e-07
-7.81625e-08
-5.8005e-07
1.1505e-07
5.01125e-07
-6.16175e-07
-5.62375e-07
6.77425e-07
5.85625e-07
-3.87875e-07
-1.9775e-07
4.095e-07
1.76125e-07
5.04625e-07
7.25e-09
-5.11875e-07
5.77367e-07
1.47866e-07
5.4925e-07
-6.39375e-07
9.0125e-08
-5.99125e-07
4.32875e-07
1.52663e-07
-6.79788e-07
-1.72125e-07
-5.2075e-07
6.485e-07
-7.5875e-08
-6.16875e-07
6.46625e-07
-2.975e-08
5.555e-07
-3.985e-07
-1.57e-07
5.85625e-07
2.03113e-07
7.45116e-07
-3.78466e-07
-3.6665e-07
-4.18125e-07
7.54375e-07
-3.3625e-07
5.815e-07
-5.085e-07
-7.30001e-08
3.16875e-07
3.4975e-07
-2.41875e-07
-4.21375e-07
6.6325e-07
4.375e-08
-5.31125e-07
-5.233e-07
7.92988e-07
-2.69688e-07
-5.74925e-07
-6.73e-07
3.3425e-07
3.3875e-07
2.52375e-07
-7.2425e-07
4.71875e-07
1.72537e-07
4.31087e-07
-6.03625e-07
-1.07237e-07
-5.48638e-07
-6.61375e-07
2.2475e-07
4.36625e-07
7.575e-08
-4.26375e-07
-1.7735e-07
4.9715e-07
-6.0825e-07
7.11875e-07
-1.03625e-07
5.95588e-07
-5.557e-07
7.15875e-07
-3.095e-07
-4.06375e-07
-1.7325e-07
-3.885e-07
5.6175e-07
4.42e-07
1.61375e-07
-6.38325e-07
5.3985e-07
9.8475e-08
3.85125e-07
-6.13e-07
2.27875e-07
5.72875e-07
1.3625e-08
3.9125e-07
-4.04875e-07
-5.385e-07
5.52125e-07
-5.27325e-07
4.4395e-07
8.93363e-07
-3.33187e-07
-5.60175e-07
-5.76825e-07
6.01e-07
-2.4175e-08
6.322e-07
-3.5895e-07
-5.93925e-07
-3.6875e-08
6.308e-07
4.7215e-07
-5.98988e-07
6.16125e-07
1.07e-07
2.06288e-07
-5.93525e-07
4.80794e-07
1.92154e-07
3.41125e-07
-6.8475e-07
3.43625e-07
5.57487e-07
3.35875e-07
-4.46725e-07
-2.507e-07
6.97425e-07
2.96457e-07
-7.43182e-07
6.7125e-07
-3.7025e-07
-5.75625e-08
-5.50563e-07
2.13875e-07
4.9585e-07
8.1625e-08
5.66875e-07
-1.845e-07
-3.82375e-07
-2.115e-07
4.7225e-07
4.10937e-07
5.75125e-08
-4.6845e-07
-2.72875e-07
3.8975e-07
3.2e-07
4.17125e-07
-5.942e-07
-1.94163e-07
5.3661e-07
-9.8215e-08
-4.38395e-07
6.355e-07
-4.8775e-07
-1.4775e-07
-6.9625e-07
2.30125e-07
-5.97e-07
3.73375e-07
2.23625e-07
-5.06625e-07
-5.15e-08
5.79875e-07
-2.4375e-08
2.2475e-07
2.80375e-07
-5.05125e-07
-6.39375e-07
6.39375e-07
-1.9715e-07
5.72763e-07
-5.23675e-07
-1.8765e-07
8.62513e-07
-5.6285e-07
-2.99662e-07
7.08275e-07
1.54237e-07
-4.2675e-08
-3.89375e-07
-2.72e-07
3.77625e-07
1.65875e-07
-5.435e-07
5.84625e-07
-3.5375e-08
-5.59925e-07
5.6245e-07
-2.525e-09
3.52625e-08
-5.95187e-07
5.64375e-07
-7.43625e-07
1.7925e-07
-8.79625e-08
-5.42675e-07
4.4025e-07
-6.2625e-08
-4.4525e-08
-5.494e-07
1.2875e-08
6.145e-07
4.1925e-07
-3.62875e-07
3.74162e-07
2.4215e-07
-6.16312e-07
7.43875e-07
-4.185e-07
6.76e-07
-4.48875e-07
-2.27125e-07
2.78638e-07
5.38062e-07
-2.22e-07
-4.51e-07
7.09237e-07
-4.94513e-07
-2.14725e-07
1.9645e-07
-4.53075e-07
-6.1475e-07
4.96875e-07
1.17875e-07
6.16238e-07
1.7675e-07
8.25e-08
4.51125e-07
-5.33625e-07
6.62875e-07
-2.88625e-07
-3.7425e-07
1.2775e-07
-5.04375e-07
3.76625e-07
1.94188e-07
3.67562e-07
-5.6175e-07
5.85475e-07
-3.91287e-07
6.25e-08
6.07625e-07
-6.70125e-07
-6.65625e-07
1.25e-07
5.33775e-07
1.20825e-07
-4.33e-07
-2.37e-07
5.2135e-07
-3.51025e-07
6.39125e-07
-4.2e-07
-2.19125e-07
7.25138e-07
-4.285e-07
-9.4375e-08
5.22875e-07
-6.74375e-07
6.61e-07
6.82737e-07
-8.30625e-08
-5.291e-07
6.871e-07
-1.58e-07
-5.57888e-07
3.93775e-07
7.33716e-07
-5.07095e-07
-2.26621e-07
5.76504e-07
1.57213e-07
7.03125e-07
-5.1425e-07
-1.88875e-07
2.07375e-07
4.9575e-07
-6.50618e-07
6.50618e-07
5.50125e-07
-1.8225e-07
-5.5098e-07
-2.27399e-07
7.78379e-07
6.78513e-07
-4.3325e-07
-4.9575e-07
-1.37937e-07
-7.78187e-07
2.13425e-07
5.64762e-07
6.42487e-07
-2.87501e-10
-4.1995e-07
4.118e-07
-4.09625e-07
5.5525e-07
-5.51625e-07
-2.7625e-08
3.74125e-07
3.26838e-07
-7.00963e-07
1.39375e-07
-6.18625e-07
1.88212e-07
3.45563e-07
-3.54787e-07
5.43e-07
4.4925e-07
-4.4425e-07
-2.25838e-07
5.95587e-07
1.16625e-07
-5.45125e-07
7.1625e-07
-2.20375e-07
-4.95875e-07
-6.60625e-07
7.425e-08
5.86375e-07
-9.8375e-08
-5.6225e-07
-3.13e-07
4.8425e-07
-1.7125e-07
2.89625e-07
3.82875e-07
-6.725e-07
7.31625e-07
-4.42e-07
3.0825e-07
3.34125e-07
-6.42375e-07
9.99951e-10
-5.3625e-07
5.3525e-07
7.28875e-07
-1.8175e-07
-5.47125e-07
-4.0125e-08
7.69e-07
7.3365e-07
-1.87213e-07
-5.46437e-07
-3.86533e-07
4.675e-07
-3.34625e-07
-5.976e-07
3.47499e-08
-1.4e-08
-5.0575e-07
6.81875e-07
-5.94375e-07
-8.75e-08
-5.16038e-07
6.01588e-07
-8.555e-08
-5.60625e-07
-5.625e-08
-8.11249e-08
4.31125e-07
-3.5e-07
4.08875e-07
-4.71e-07
6.09875e-07
-6.79625e-07
6.975e-08
7.19125e-07
-1.0925e-07
4.11875e-07
2.23625e-07
-6.16625e-07
4.945e-07
5.8775e-07
1.21475e-07
-7.09225e-07
-5.77e-07
5.0375e-07
7.325e-08
7.75288e-07
-2.8055e-07
-4.94738e-07
4.02413e-07
6.30875e-07
-1.8975e-07
-4.41125e-07
-5.85625e-07
6.12496e-09
5.795e-07
-4.9175e-07
4.11e-07
3.935e-07
1.11125e-07
5.64875e-07
8.53749e-08
4.26125e-07
-5.115e-07
6.65188e-07
-5.12288e-07
-1.529e-07
-6.79375e-07
4.06375e-07
2.73e-07
-2.41125e-07
6.43375e-07
-4.0225e-07
-3.14812e-07
-3.15888e-07
6.307e-07
-3.82325e-07
6.14162e-07
-2.31838e-07
-5.3055e-07
-3.12875e-08
5.61837e-07
-4.45625e-07
-2.98375e-07
-7.10125e-07
2.77625e-07
4.325e-07
4.45913e-07
1.99e-07
-6.44913e-07
-3.30712e-07
-4.59275e-07
7.89987e-07
3.16138e-07
-5.97625e-07
2.81488e-07
-4.45125e-07
7.88e-07
-3.42875e-07
-5.80875e-07
5.7925e-07
5.8525e-07
-4.54125e-07
-1.31125e-07
-7.4325e-07
9.35e-08
-4.96875e-07
-2.81625e-07
-4.0575e-07
5.0625e-07
-6.0775e-07
6.0775e-07
2.975e-08
-6.38e-07
-1.55e-07
-4.45375e-07
6.00375e-07
4.7975e-07
6.0025e-07
-3.755e-07
2.7975e-07
2.60375e-07
-5.40125e-07
6.06375e-07
-3.26625e-07
6.6705e-07
-3.36462e-07
-7.84662e-07
5.40075e-07
2.44587e-07
2.12e-07
-6.435e-07
4.315e-07
-6.92162e-07
2.81338e-07
4.10825e-07
-5.8235e-07
7.25388e-07
-1.43038e-07
-2.00375e-07
-3.06e-07
3.302e-07
3.56075e-07
-6.86275e-07
5.97e-07
-6.60625e-07
6.3625e-08
-2.26475e-07
7.07388e-07
-6.7225e-07
-1.65e-08
-5.31875e-07
-2.285e-07
-5.72625e-07
7.0375e-07
-2.3975e-07
-4.64e-07
7.5e-08
4.02125e-07
-4.97062e-07
-1.41262e-07
-1.57375e-07
5.40125e-07
-3.8275e-07
5.76625e-08
-5.737e-07
-2.54775e-07
6.01537e-07
-3.46762e-07
3.51238e-07
1.88638e-07
-5.39875e-07
5.80375e-07
5.875e-08
6.88875e-07
-5.425e-08
-6.03587e-07
4.9935e-07
1.04237e-07
-4.73037e-07
-2.51488e-07
-4.275e-08
-4.04875e-07
4.47625e-07
-3.39125e-07
-1.64625e-07
-2.75e-08
-4.4275e-07
4.7025e-07
-2.34124e-08
4.13988e-07
-3.90575e-07
5.64625e-07
-5.88038e-07
-5.32125e-07
4.1425e-07
-5.92875e-07
2.2175e-07
5.65275e-07
-2.20713e-07
-5.42625e-07
-2.29375e-07
7.72e-07
1.56125e-07
-5.89125e-07
-6.7e-07
-5.55162e-07
1.8325e-07
-4.9625e-07
-6.2575e-07
-6.9875e-08
5.295e-07
-7.0275e-07
1.7325e-07
-1.01625e-08
5.5015e-07
-5.39987e-07
2.8475e-07
-6.2925e-07
3.445e-07
-1.92875e-07
6.5975e-07
-4.66875e-07
4.65375e-07
-6.5825e-07
5.64413e-07
-6.92275e-07
1.27862e-07
-2.3725e-07
5.91875e-07
-3.54625e-07
4.0025e-07
-6.375e-07
-1.57225e-07
6.03137e-07
-5.53763e-07
1.06475e-07
4.9725e-07
-5.78375e-07
-5.25625e-07
2.79e-07
2.46625e-07
-5.06612e-07
-2.7805e-07
3.5125e-08
4.2475e-07
-4.59875e-07
-3.05375e-07
5.80075e-07
-2.747e-07
4.96375e-08
4.20475e-07
-4.70112e-07
-1.22113e-07
-5.69e-07
-6.54e-07
2.20375e-07
4.33625e-07
-1.5825e-07
5.6775e-07
1.70375e-07
4.22125e-07
-5.925e-07
7.06737e-07
-1.85663e-07
-4.353e-07
5.19175e-07
6.69625e-07
-3.17125e-07
-2.6975e-07
6.7325e-07
-4.035e-07
3.57625e-07
3.09e-07
-6.66625e-07
-4.7525e-07
-1.325e-07
-2.625e-07
5.925e-07
-3.3e-07
5.79875e-07
1.4225e-07
-7.22125e-07
-6.833e-07
1.1235e-07
5.7095e-07
-1.91488e-07
6.00288e-07
-4.088e-07
-4.6025e-07
-3.5775e-07
3.49825e-07
-6.44587e-07
2.94763e-07
-2.54e-07
-4.43625e-07
-4.32413e-07
7.20925e-07
8.11249e-08
4.05625e-07
-4.8675e-07
9.4125e-08
4.95875e-07
5.3275e-07
-4.5025e-07
6.58713e-07
-2.06413e-07
-4.523e-07
7.35363e-07
-7.665e-08
5.09987e-07
2.14113e-07
-2.6e-07
5.67e-07
-3.07e-07
5.3475e-07
-6.19875e-07
8.5125e-08
9.4375e-08
4.40375e-07
-5.055e-07
5.29125e-07
3.165e-07
-4.15125e-07
-1.99625e-07
6.8625e-07
-2.03125e-07
-4.83125e-07
-3.13875e-07
-1.6935e-07
4.83225e-07
3.385e-07
2.965e-07
-6.35e-07
1.79775e-07
-4.9365e-07
-1.73675e-07
5.565e-07
-7.67287e-07
5.47637e-07
2.1965e-07
-2.82e-07
-3.15e-07
9.26875e-08
-6.69512e-07
6.99745e-07
-1.07125e-07
3.42804e-07
3.56941e-07
-4.36375e-07
-2.43e-07
-3.32075e-07
6.56612e-07
-3.24537e-07
6.40138e-07
8.9875e-08
-7.30013e-07
-4.77375e-07
4.78375e-07
-2.43112e-07
-4.4905e-07
6.08314e-07
9.50125e-08
-7.03326e-07
6.8725e-07
-2.24125e-07
-3.75e-08
4.675e-07
-4.3e-07
-5.305e-07
4.93e-07
-2.37e-07
7.90625e-07
-6.25125e-07
1.79125e-07
4.46e-07
2.74875e-07
-6.27125e-07
3.5225e-07
5.28125e-07
-4.49999e-09
-5.23625e-07
-2.8345e-07
-3.85725e-07
6.69175e-07
5.05175e-07
-3.3625e-08
-4.7155e-07
-4.275e-07
3.71875e-07
4.64625e-07
2.3125e-08
7.04425e-07
-1.585e-08
-6.88575e-07
-2.75e-07
6.9425e-07
-4.1925e-07
-7.1385e-07
1.833e-07
-5.34125e-07
2.93e-07
6.73125e-07
-6.05125e-07
-6.8e-08
-5.0875e-07
4.66e-07
4.5625e-07
-6.4625e-07
1.9e-07
-6.71187e-07
2.88863e-07
6.03e-07
-2.9475e-07
-1.85375e-07
-4.52625e-07
6.38e-07
3.5075e-07
1.86875e-07
-5.37625e-07
-5.825e-08
6.28e-07
6.0825e-07
9.9375e-08
1.48663e-07
5.7345e-07
-7.22113e-07
2.355e-07
-4.90275e-07
-5.69375e-07
2e-08
5.49375e-07
-6.4875e-07
7.9375e-08
-6.31e-07
6.9675e-07
-6.575e-08
3.979e-07
1.75637e-07
-5.73537e-07
-6.1e-07
5.4425e-07
6.575e-08
1.9225e-07
4.50875e-07
4.30125e-07
-6.42375e-07
2.1225e-07
3.44e-07
3.29125e-07
-5.6175e-07
-1.99125e-07
-5.59174e-07
6.60831e-07
-1.01657e-07
2.26813e-07
3.60938e-07
-5.3375e-08
5.94125e-07
5.82625e-07
-1.15e-07
-4.67625e-07
-2.732e-07
-3.091e-07
2.9325e-07
-5.90087e-07
2.96837e-07
-9.55e-08
-3.33125e-07
7.835e-07
-4.50375e-07
4.42562e-07
-6.47625e-07
2.05063e-07
3.5575e-07
-7.08e-07
5.86125e-07
-2.30375e-07
5.5025e-07
-1.1625e-08
-5.1075e-07
5.96125e-07
-6.901e-07
3.89638e-07
3.00463e-07
-5.8575e-07
5.5825e-07
7.0825e-07
-7.0825e-07
-5.13875e-07
-4.2375e-08
5.5625e-07
-3.87625e-07
6.79e-07
-2.91375e-07
-3.68125e-07
6.83625e-07
6.4975e-07
-3.14e-07
-3.3575e-07
4.33166e-07
3.1195e-07
-2.965e-07
6.1425e-07
-3.1775e-07
6.50125e-07
-3.98125e-07
-2.52e-07
-2.1875e-07
-3.40625e-07
5.59375e-07
3.44525e-07
2.80475e-07
-1.02875e-07
5.54e-07
-2.51125e-07
-4.26375e-07
5.21e-07
-4.585e-07
-1.07e-07
-5.63625e-07
-1.45375e-07
2.80434e-07
4.39626e-07
-2.05e-08
-5.7825e-07
6.01938e-07
-3.2075e-08
2.27813e-07
3.74125e-07
-6.51125e-07
3.91125e-07
6.9125e-08
-4.8475e-07
4.15625e-07
4.94525e-07
2.96875e-08
4.0375e-07
-6.86125e-07
-2.24e-07
6.2775e-07
5.67625e-07
9.14375e-08
4.61925e-07
-5.53363e-07
-4.83825e-07
5.75263e-07
6.16188e-07
-5.6265e-07
-5.35376e-08
5.13625e-07
2.13125e-07
-7.1275e-07
-3.3e-08
-3.537e-07
-3.50412e-07
4.82087e-07
-4.91125e-07
9.03751e-09
-6.57625e-07
5.29625e-07
-1.32375e-07
5.32625e-07
5.48625e-07
-2.325e-08
-5.25375e-07
-3.67638e-07
-3.9965e-07
-7.195e-07
2.7675e-07
-6.22e-07
1.42875e-07
4.79125e-07
-6.37375e-07
1.5375e-08
6.3175e-07
1.225e-08
-5.51875e-07
2.6425e-07
2.87625e-07
-6.855e-07
4.6e-08
6.395e-07
-5.66325e-07
1.50666e-07
4.15659e-07
-3.44375e-07
-3.68125e-07
7.125e-07
-3.03937e-07
-4.7425e-07
3.15625e-07
3.205e-07
-3.80875e-08
4.863e-07
-4.48213e-07
5.47963e-07
-5.8605e-07
-6.225e-07
1.40125e-07
4.82375e-07
-4.7725e-07
6.43125e-07
-5.03391e-07
-1.86538e-07
6.89929e-07
-5.455e-07
1.2525e-07
4.2025e-07
-7.08925e-07
3.2125e-08
6.768e-07
-1.84288e-07
-5.24638e-07
-3.75e-07
-1.47875e-07
5.22875e-07
-3.9995e-07
7.51188e-07
4.64912e-07
2.25375e-07
-6.90287e-07
6.21375e-07
-6.03625e-07
-1.775e-08
5.68875e-07
-5.39125e-07
-6.725e-08
6.36125e-07
6.33875e-07
-5.9625e-07
-3.405e-07
-4.51375e-07
7.91875e-07
1.96125e-07
-4.92625e-07
-4.1375e-08
5.15875e-07
-4.25625e-07
2.7325e-07
-6.05038e-07
5.52312e-07
1.0665e-07
-6.58962e-07
-7.26175e-07
5.403e-07
-2.10863e-07
-5.15313e-07
5.7725e-07
-1.93125e-07
1.1835e-07
3.48337e-07
-4.66687e-07
2.5275e-07
4.51e-07
-1.86462e-07
-3.36038e-07
-5.44775e-07
3.58312e-07
4.4825e-07
1.5225e-07
-5.285e-07
3.375e-07
-1.17375e-07
5.4825e-07
-4.30875e-07
-2.34375e-07
-3.37875e-07
-7.3585e-07
7.0475e-07
3.11e-08
-4.78625e-07
-3.90475e-07
6.48238e-07
-2.57762e-07
-6.89062e-07
5.83175e-07
1.05888e-07
-3.53388e-07
6.69925e-07
-8.18375e-07
6.355e-07
1.82875e-07
-6.60625e-07
4.16375e-07
8.96125e-08
-5.05988e-07
6.12875e-07
8e-08
4.16375e-07
2.27e-07
-2.71e-08
-5.8745e-07
-4.805e-07
7.17375e-07
-2.36875e-07
-5.0775e-07
-2.37375e-07
2.2475e-07
4.82875e-07
-7.07625e-07
-4.69825e-07
-2.68588e-07
7.38413e-07
2.85125e-07
-6.41125e-07
3.56e-07
-1.6095e-07
-5.749e-07
4.79625e-07
-7.19625e-07
2.4e-07
3.475e-07
2.1475e-07
-5.6225e-07
7.60137e-07
-4.12637e-07
7.345e-07
-5.0975e-07
5.33725e-07
-9.50125e-08
-5.30625e-07
3.0625e-08
5e-07
-5.50876e-08
-6.07425e-07
6.62513e-07
-4.5175e-07
6.43125e-07
-1.91375e-07
-6.5675e-07
2.525e-07
4.0425e-07
-8.625e-08
-5.705e-07
-2.29113e-07
5.22363e-07
6.94875e-07
-1.75e-09
4.0625e-08
2.69338e-07
3.10087e-07
-5.79425e-07
-7.04575e-07
-1.54275e-07
-5.503e-07
-2.74125e-07
-5.16825e-07
5.97887e-07
-8.10625e-08
-5.66625e-07
5.275e-08