/*--------------------------------*- C++ -*----------------------------------*\
  =========                 |
  \\      /  F ield         | OpenFOAM: The Open Source CFD Toolbox
   \\    /   O peration     | Website:  https://openfoam.org
    \\  /    A nd           | Version:  7
     \\/     M anipulation  |
\*---------------------------------------------------------------------------*/
FoamFile
{
    version     2.0;
    format      ascii;
    class       volVectorField;
    location    "6";
    object      U;
}
// * * * * * * * * * * * * * * * * * * * * * * * * * * * * * * * * * * * * * //

dimensions      [0 1 -1 0 0 0 0];

internalField   nonuniform List<vector> 
13182
(
(0.5 -1.88257e-09 -8.39089e-25)
(0.5 1.57146e-08 0)
(0.5 -5.28838e-08 -2.82619e-24)
(0.5 -2.70619e-09 6.52247e-24)
(0.5 3.0391e-08 -3.0715e-25)
(0.5 8.08175e-10 -3.236e-24)
(0.5 6.83119e-09 -6.23606e-24)
(0.5 2.7482e-09 7.25173e-24)
(0.5 -2.26877e-09 3.76388e-24)
(0.5 -1.9965e-08 -3.42475e-24)
(0.5 -5.77218e-10 0)
(0.5 2.7651e-09 2.45237e-26)
(0.5 -5.87037e-09 3.74554e-25)
(0.5 -6.20293e-09 7.1284e-24)
(0.5 5.68347e-09 0)
(0.5 3.95232e-09 -3.19517e-24)
(0.5 -4.16505e-09 1.82072e-24)
(0.5 9.53905e-09 0)
(0.5 6.69165e-09 6.21907e-24)
(0.5 1.19462e-08 0)
(0.5 -4.70174e-08 2.77525e-24)
(0.5 4.14402e-09 0)
(0.5 -6.30962e-09 -1.98852e-25)
(0.5 -1.6334e-08 -1.15399e-23)
(0.5 1.38654e-08 -6.82651e-25)
(0.5 2.69172e-08 0)
(0.5 1.26768e-08 0)
(0.5 -1.99662e-08 0)
(0.5 -7.83159e-09 -1.09391e-24)
(0.5 9.50747e-09 1.15949e-23)
(0.5 1.08402e-08 0)
(0.5 -1.42996e-09 -6.82537e-24)
(0.5 5.81255e-09 1.54117e-24)
(0.5 2.44569e-08 -1.58654e-24)
(0.5 6.71093e-08 4.44111e-24)
(0.5 3.81968e-08 0)
(0.5 3.1315e-09 0)
(0.5 -3.12505e-08 4.75746e-24)
(0.5 -1.92884e-08 0)
(0.5 -1.02555e-08 3.39139e-24)
(0.5 5.96853e-08 9.93945e-26)
(0.5 -8.24164e-08 -7.66038e-25)
(0.5 4.70631e-09 -2.76616e-24)
(0.5 2.19242e-08 8.45123e-25)
(0.5 1.244e-08 4.05328e-25)
(0.5 6.70475e-08 0)
(0.5 -6.98178e-09 -7.86275e-24)
(0.5 -4.01752e-08 0)
(0.5 -2.44523e-08 -2.12092e-24)
(0.5 -2.12981e-10 0)
(0.5 -2.5388e-08 0)
(0.5 -3.88878e-08 0)
(0.5 -1.06636e-08 -1.70247e-24)
(0.5 2.31988e-09 -2.72584e-24)
(0.5 -1.00725e-08 0)
(0.5 4.48018e-09 0)
(0.5 -3.90759e-09 0)
(0.5 -3.70155e-09 2.76412e-24)
(0.5 -1.12355e-08 3.2674e-24)
(0.5 1.26474e-08 0)
(0.5 1.12196e-09 0)
(0.5 1.60094e-09 -7.51253e-24)
(0.5 -3.03417e-09 3.11537e-24)
(0.5 -3.88647e-08 -5.37521e-24)
(0.5 2.82155e-08 -6.16002e-24)
(0.5 3.3713e-08 1.11789e-23)
(0.5 -1.71624e-08 3.08873e-24)
(0.5 1.95606e-08 -1.45793e-24)
(0.5 -1.33566e-08 6.33606e-25)
(0.5 1.04214e-08 2.99171e-24)
(0.5 -3.52538e-08 1.55935e-25)
(0.5 1.61331e-09 1.88089e-24)
(0.5 8.13496e-09 -3.94187e-24)
(0.5 5.6934e-08 0)
(0.5 3.34836e-08 -1.11262e-24)
(0.5 4.86698e-09 -7.53482e-24)
(0.5 6.15776e-09 0)
(0.5 3.54186e-09 -2.05382e-24)
(0.5 -2.75376e-09 -7.71297e-24)
(0.5 -1.39223e-08 1.35155e-23)
(0.5 4.62133e-09 1.8753e-24)
(0.5 3.64286e-08 -3.25842e-24)
(0.5 5.57892e-09 -1.74997e-24)
(0.5 -1.06089e-08 1.59182e-24)
(0.5 -5.4256e-09 1.32329e-24)
(0.5 6.05686e-09 0)
(0.5 -1.16025e-08 0)
(0.5 -3.38994e-08 3.33421e-24)
(0.5 1.38113e-08 0)
(0.5 1.43246e-08 2.82772e-24)
(0.5 -2.68497e-08 0)
(0.5 9.42247e-09 4.05483e-24)
(0.5 5.65687e-09 -1.63891e-24)
(0.5 -5.47267e-08 -3.71144e-24)
(0.5 1.72428e-08 6.96873e-24)
(0.5 -8.63197e-10 0)
(0.5 -4.80598e-08 -2.63143e-24)
(0.5 -8.54835e-10 -1.75299e-24)
(0.5 8.11848e-09 0)
(0.5 1.35952e-08 0)
(0.5 1.29368e-08 1.87541e-24)
(0.5 -3.36458e-08 0)
(0.5 5.70133e-09 0)
(0.5 3.96025e-09 6.26485e-24)
(0.5 9.58325e-09 3.60638e-24)
(0.5 9.57254e-09 2.79544e-24)
(0.5 1.03273e-08 1.33553e-24)
(0.5 -5.57228e-08 1.34902e-24)
(0.5 5.84117e-09 9.43533e-24)
(0.5 3.08811e-08 0)
(0.5 9.08005e-09 -8.48673e-24)
(0.5 1.96223e-08 -1.74082e-24)
(0.5 1.2291e-08 4.22518e-24)
(0.5 1.25819e-09 3.72639e-26)
(0.5 -1.26367e-08 -2.57164e-24)
(0.5 -1.11576e-09 4.52686e-24)
(0.5 5.39001e-09 -4.73248e-24)
(0.5 -9.95162e-08 -9.37401e-25)
(0.5 -3.33638e-08 -4.54562e-24)
(0.5 -2.92213e-08 -2.15908e-26)
(0.5 -1.24365e-08 0)
(0.5 6.64049e-09 3.259e-24)
(0.5 6.7979e-09 0)
(0.5 2.0778e-10 6.35388e-24)
(0.5 -9.09368e-10 2.65399e-24)
(0.5 -9.14679e-09 0)
(0.5 -5.8273e-09 3.07332e-24)
(0.5 -7.5071e-10 -1.73587e-24)
(0.5 -1.60327e-10 7.06003e-24)
(0.5 -4.16488e-08 0)
(0.5 -1.03697e-08 -8.74981e-25)
(0.5 -1.69465e-09 0)
(0.5 -1.97472e-09 0)
(0.5 -1.40745e-08 1.97855e-24)
(0.5 -5.28021e-09 9.65281e-24)
(0.5 -3.75039e-10 -6.50009e-24)
(0.5 -1.44427e-09 -5.03372e-25)
(0.5 3.77762e-09 1.56698e-24)
(0.5 -1.21634e-13 0)
(0.5 1.24056e-08 -1.19397e-23)
(0.5 5.12678e-08 -5.49693e-24)
(0.5 8.31358e-08 0)
(0.5 -6.84184e-08 -1.35158e-24)
(0.5 -1.26701e-08 0)
(0.5 -2.94053e-08 -3.12602e-24)
(0.5 2.58021e-10 1.54282e-26)
(0.5 1.51638e-08 0)
(0.5 -2.51484e-08 0)
(0.5 8.08271e-09 3.7986e-24)
(0.5 -4.85985e-08 0)
(0.5 -6.57339e-08 7.66501e-25)
(0.5 3.27198e-08 -2.53015e-24)
(0.5 2.50626e-08 0)
(0.5 1.37587e-08 -2.18668e-24)
(0.5 -8.72326e-09 -4.72407e-24)
(0.5 -8.89242e-09 -5.38515e-24)
(0.5 -2.00611e-08 0)
(0.5 8.59704e-08 -1.13467e-27)
(0.5 3.9134e-08 7.43302e-25)
(0.5 6.94619e-09 0)
(0.5 2.00342e-09 2.86911e-24)
(0.5 -2.79196e-08 4.68372e-24)
(0.5 -3.13101e-08 -2.07927e-24)
(0.5 5.67499e-09 7.22918e-24)
(0.5 -2.70781e-10 1.35457e-26)
(0.5 4.21291e-09 -1.58679e-26)
(0.5 8.22738e-09 -4.05689e-24)
(0.5 4.49449e-08 5.85174e-24)
(0.5 1.89988e-08 -1.3179e-24)
(0.5 -2.63088e-08 0)
(0.5 -8.10435e-09 0)
(0.5 -1.85174e-08 3.56003e-24)
(0.5 -1.32644e-08 0)
(0.5 2.6466e-08 3.30597e-25)
(0.5 2.76291e-08 -2.25437e-24)
(0.5 -6.01225e-09 -6.30838e-24)
(0.5 -6.4398e-08 0)
(0.5 -2.02128e-08 2.26563e-24)
(0.5 -2.97093e-09 0)
(0.5 8.09859e-09 0)
(0.5 1.52453e-08 2.76529e-24)
(0.5 -3.54843e-08 2.36022e-24)
(0.5 7.45921e-09 0)
(0.5 1.0379e-09 -9.67748e-24)
(0.5 1.31023e-09 1.55248e-24)
(0.5 2.42111e-08 2.38239e-24)
(0.5 -9.2501e-09 -4.59716e-24)
(0.5 1.97922e-09 6.96292e-24)
(0.5 7.12074e-09 -3.99445e-24)
(0.5 -1.52128e-09 -2.89769e-24)
(0.5 1.01376e-08 1.93631e-24)
(0.5 8.0175e-09 -3.67658e-28)
(0.5 3.43267e-11 1.88832e-24)
(0.5 3.37453e-10 0)
(0.5 8.78637e-09 -7.91511e-24)
(0.5 -2.54841e-08 -2.32117e-24)
(0.5 -2.42787e-08 -4.40585e-24)
(0.5 -1.22825e-08 -1.51455e-24)
(0.5 -8.7997e-09 -5.34004e-24)
(0.5 1.39545e-08 -1.47477e-24)
(0.5 -1.40537e-08 6.69924e-24)
(0.5 -6.86981e-09 -1.0913e-23)
(0.5 -3.19727e-08 -3.8428e-25)
(0.5 4.59393e-09 0)
(0.5 1.71676e-08 2.79457e-26)
(0.5 3.34809e-08 -1.14225e-24)
(0.5 4.08326e-08 1.43821e-24)
(0.5 -3.81321e-08 0)
(0.5 4.47158e-09 -4.67854e-24)
(0.5 3.00952e-08 1.76064e-24)
(0.5 -1.80857e-08 0)
(0.5 -1.69838e-09 0)
(0.5 -7.1986e-09 6.65051e-24)
(0.5 1.04346e-09 -8.11753e-24)
(0.5 5.59189e-09 0)
(0.5 -5.89291e-09 0)
(0.5 -1.4749e-08 -5.38536e-24)
(0.5 5.59193e-09 8.04906e-24)
(0.5 -1.18772e-08 5.56999e-24)
(0.5 1.6581e-08 2.57615e-25)
(0.5 2.99527e-08 0)
(0.5 1.38977e-08 0)
(0.5 2.5345e-08 -8.07871e-25)
(0.5 -1.029e-08 -1.75879e-24)
(0.5 -2.45415e-08 -1.39457e-24)
(0.5 1.71488e-09 8.18605e-24)
(0.5 -1.80727e-09 -3.42464e-24)
(0.5 1.26497e-08 0)
(0.5 3.25008e-09 -3.74827e-24)
(0.5 1.79111e-09 1.31588e-23)
(0.5 2.92319e-09 -3.64417e-24)
(0.5 2.12117e-08 3.58456e-24)
(0.5 1.19572e-08 -3.57291e-24)
(0.5 -7.13468e-09 0)
(0.5 1.12535e-08 8.802e-25)
(0.5 -1.55181e-09 0)
(0.5 -3.97766e-08 1.89431e-26)
(0.5 1.32076e-09 -6.8469e-24)
(0.5 2.7076e-09 0)
(0.5 2.27888e-08 2.71467e-26)
(0.5 1.40861e-08 -1.82182e-24)
(0.5 -2.77208e-08 9.56545e-25)
(0.5 -5.61257e-09 3.5641e-24)
(0.5 8.29363e-10 -2.96581e-24)
(0.5 -5.26303e-09 9.66407e-24)
(0.5 1.68914e-08 -3.30639e-24)
(0.5 -2.72026e-08 -5.64426e-24)
(0.5 -6.6969e-09 1.09621e-23)
(0.5 1.07222e-10 3.99101e-25)
(0.5 3.81335e-09 -2.78142e-24)
(0.5 -4.48797e-09 -1.56515e-24)
(0.5 -2.10858e-08 3.01099e-24)
(0.5 -1.28152e-08 -7.81736e-24)
(0.5 -2.12043e-09 2.40159e-24)
(0.5 8.63101e-08 1.14062e-24)
(0.5 1.45208e-09 3.33308e-24)
(0.5 8.4541e-09 1.07783e-24)
(0.5 1.05143e-08 7.30643e-25)
(0.5 -1.33826e-08 1.63395e-25)
(0.5 1.76322e-09 1.04857e-24)
(0.5 3.13076e-08 0)
(0.5 -1.70939e-09 -1.01323e-23)
(0.5 -1.0155e-09 -3.60887e-24)
(0.5 3.01693e-09 0)
(0.5 2.49694e-08 3.36567e-24)
(0.5 -1.7579e-08 -2.38591e-24)
(0.5 -5.97418e-08 -1.60191e-24)
(0.5 -2.25636e-09 0)
(0.5 8.17751e-09 5.77216e-24)
(0.5 6.2986e-09 4.55845e-25)
(0.5 1.64532e-09 7.07394e-24)
(0.5 -2.63991e-09 7.61862e-24)
(0.5 -9.18167e-09 -6.86867e-24)
(0.5 -6.51513e-09 0)
(0.5 8.11484e-09 0)
(0.5 -5.28272e-08 4.31527e-24)
(0.5 1.01984e-09 -7.18529e-24)
(0.5 1.97982e-09 1.01616e-23)
(0.5 -6.75786e-09 0)
(0.5 6.01088e-09 0)
(0.5 3.04881e-09 7.69222e-24)
(0.5 -2.77132e-08 -2.24703e-24)
(0.5 -5.94507e-09 0)
(0.5 -1.08143e-08 -4.46527e-24)
(0.5 -8.87791e-09 8.23627e-25)
(0.5 4.70421e-08 -5.98257e-25)
(0.5 -3.15822e-08 -4.22859e-24)
(0.5 6.12836e-09 7.28511e-24)
(0.5 6.07788e-08 -1.48045e-24)
(0.5 6.04321e-09 4.08383e-24)
(0.5 -1.11642e-08 -1.97728e-24)
(0.5 1.22481e-08 1.65477e-24)
(0.5 -7.92656e-09 -1.16504e-24)
(0.5 2.59651e-08 1.55577e-24)
(0.5 1.39573e-08 -1.80504e-24)
(0.5 -3.06615e-11 -2.77763e-24)
(0.5 4.1329e-09 0)
(0.5 5.54287e-09 0)
(0.5 -4.55628e-09 5.84052e-24)
(0.5 -3.13714e-09 1.96922e-24)
(0.5 9.42323e-09 -2.66191e-24)
(0.5 -3.43611e-08 -8.11189e-24)
(0.5 -9.39503e-09 -3.42865e-24)
(0.5 -1.0036e-08 -1.8075e-24)
(0.5 -7.84592e-08 0)
(0.5 -1.14631e-08 2.28348e-24)
(0.5 1.70794e-09 -5.9875e-24)
(0.5 1.00441e-08 -3.18082e-24)
(0.5 -6.58316e-09 -7.75736e-24)
(0.5 -1.59391e-08 -4.09674e-28)
(0.5 -7.64795e-09 0)
(0.5 1.75294e-09 3.48833e-24)
(0.5 -5.65362e-09 2.07621e-24)
(0.5 1.14471e-08 -7.41999e-24)
(0.5 9.79453e-09 0)
(0.5 -3.13331e-09 8.34705e-24)
(0.5 1.76427e-09 -7.10147e-24)
(0.5 1.04792e-08 0)
(0.5 4.67264e-09 -1.37034e-23)
(0.5 2.61298e-08 -2.02861e-24)
(0.5 2.91071e-08 3.2734e-24)
(0.5 6.6942e-09 -1.23716e-24)
(0.5 1.23708e-08 -7.00765e-24)
(0.5 -2.03927e-09 3.45454e-24)
(0.5 5.89675e-09 -5.62437e-24)
(0.5 7.5651e-10 7.23279e-24)
(0.5 3.2157e-08 -2.13914e-26)
(0.5 9.41353e-09 0)
(0.5 -5.49625e-08 0)
(0.5 1.1656e-08 2.26653e-24)
(0.5 2.04084e-08 0)
(0.5 2.08345e-08 0)
(0.5 -1.45208e-08 0)
(0.5 -3.78951e-09 3.91469e-24)
(0.5 -1.65659e-08 0)
(0.5 -1.18768e-08 -3.8805e-25)
(0.5 2.53243e-08 5.92396e-24)
(0.5 2.88293e-09 3.20074e-24)
(0.5 5.48399e-09 0)
(0.5 -2.03744e-08 -1.84688e-24)
(0.5 -6.02801e-08 -5.10974e-25)
(0.5 -6.4233e-09 0)
(0.5 -2.53445e-09 9.85627e-25)
(0.5 4.39195e-08 0)
(0.5 -3.78774e-08 -3.39899e-24)
(0.5 4.36879e-09 0)
(0.5 -1.47575e-09 -6.05205e-24)
(0.5 -5.29564e-09 0)
(0.5 -1.36874e-08 6.68601e-24)
(0.5 6.3791e-09 6.37708e-24)
(0.5 1.30354e-08 -5.99706e-24)
(0.5 7.32509e-09 1.08584e-23)
(0.5 -3.62956e-08 -1.17438e-24)
(0.5 1.41056e-10 -6.62439e-24)
(0.5 9.07425e-09 9.50797e-24)
(0.5 2.70516e-09 3.18035e-24)
(0.5 -8.4762e-09 5.34988e-24)
(0.5 -1.39819e-08 5.57765e-24)
(0.5 5.63234e-10 1.84731e-24)
(0.5 -4.44006e-10 -6.99517e-24)
(0.5 -1.0436e-08 -9.24251e-25)
(0.5 7.73845e-09 0)
(0.5 -2.24093e-08 1.17884e-24)
(0.5 3.27943e-09 -1.95783e-24)
(0.5 6.83239e-08 3.02321e-24)
(0.5 -2.43688e-09 0)
(0.5 9.53638e-09 -4.84893e-24)
(0.5 8.14383e-09 -7.50628e-24)
(0.5 1.67786e-09 5.58408e-28)
(0.5 1.73446e-08 0)
(0.5 3.58045e-09 3.66267e-24)
(0.5 1.22711e-08 -3.62213e-24)
(0.5 -2.204e-08 9.5836e-25)
(0.5 1.37666e-08 1.24255e-24)
(0.5 -7.85916e-09 8.39916e-24)
(0.5 4.79174e-09 -2.77255e-24)
(0.5 8.80406e-09 5.49293e-24)
(0.5 2.30752e-09 1.59228e-24)
(0.5 4.11094e-08 1.40592e-25)
(0.5 4.3573e-08 -8.11599e-25)
(0.5 -4.08313e-08 6.37939e-24)
(0.5 3.87053e-08 3.58812e-24)
(0.5 7.43109e-09 7.12937e-24)
(0.5 7.63496e-09 3.39345e-24)
(0.5 1.61153e-08 2.11455e-24)
(0.5 -3.21156e-08 8.36936e-26)
(0.5 -2.81355e-10 4.37727e-24)
(0.5 -2.73154e-09 1.84139e-24)
(0.5 4.17479e-08 -1.60376e-25)
(0.5 1.17592e-08 -4.82156e-26)
(0.5 2.22043e-08 0)
(0.5 -4.71204e-11 4.88501e-25)
(0.5 -2.14265e-09 -7.45171e-24)
(0.5 2.66473e-08 2.99753e-24)
(0.5 -1.85256e-10 2.63468e-24)
(0.5 -4.9211e-09 0)
(0.5 3.73785e-09 0)
(0.5 -3.94958e-09 -1.79459e-24)
(0.5 -5.35877e-08 6.12283e-24)
(0.5 7.82245e-09 -1.98074e-24)
(0.5 -4.46705e-08 0)
(0.5 -3.84047e-08 -1.76313e-24)
(0.5 3.56739e-10 1.52496e-24)
(0.5 5.41008e-09 -1.52237e-24)
(0.5 9.85364e-09 -5.08493e-24)
(0.5 -2.19326e-08 4.53918e-24)
(0.5 -1.14935e-08 -3.19535e-24)
(0.5 1.35708e-09 7.40521e-24)
(0.5 -4.84635e-10 0)
(0.5 -1.48472e-08 -5.15257e-24)
(0.5 4.16168e-08 -6.28646e-24)
(0.5 3.17449e-08 0)
(0.5 3.56601e-08 4.3504e-25)
(0.5 1.62406e-08 -1.38218e-24)
(0.5 -4.47409e-10 0)
(0.5 -1.32023e-08 1.26013e-24)
(0.5 6.79952e-10 0)
(0.5 6.61581e-08 -1.26865e-25)
(0.5 -1.17293e-08 0)
(0.5 -2.15818e-08 0)
(0.5 1.59962e-08 0)
(0.5 1.36317e-08 -1.41976e-23)
(0.5 1.19316e-08 9.19187e-25)
(0.5 1.2396e-08 0)
(0.5 2.78949e-09 0)
(0.5 4.39225e-08 3.25943e-24)
(0.5 -1.06695e-08 3.582e-24)
(0.5 9.67662e-11 2.74192e-24)
(0.5 7.77568e-09 0)
(0.5 1.24212e-08 -3.40716e-24)
(0.5 4.22381e-08 -4.22782e-25)
(0.5 2.23429e-08 5.96136e-24)
(0.5 1.75569e-08 7.81956e-25)
(0.5 -1.40195e-09 7.17993e-24)
(0.5 6.04323e-09 3.87849e-24)
(0.5 -4.95927e-08 0)
(0.5 2.07427e-09 3.17028e-24)
(0.5 2.67688e-09 1.20473e-24)
(0.5 -4.54901e-08 3.1598e-24)
(0.5 2.60692e-08 0)
(0.5 -1.72972e-08 -1.57749e-24)
(0.5 2.15283e-08 -5.08738e-24)
(0.5 -1.28767e-08 0)
(0.5 9.38137e-09 -3.40299e-24)
(0.5 -2.29108e-08 8.44174e-24)
(0.5 -1.78638e-10 0)
(0.5 -5.39531e-08 0)
(0.5 -3.93356e-10 0)
(0.5 2.95503e-08 0)
(0.5 4.66114e-09 3.72013e-24)
(0.5 3.41945e-10 -6.81248e-24)
(0.5 2.41431e-08 6.74346e-24)
(0.5 -2.17642e-08 2.11579e-24)
(0.5 1.07681e-09 1.93444e-24)
(0.5 -6.345e-08 9.75346e-25)
(0.5 -1.75961e-08 6.0487e-24)
(0.5 2.26103e-09 0)
(0.5 8.61906e-09 0)
(0.5 6.54711e-09 0)
(0.5 -6.62664e-09 9.4114e-24)
(0.5 -9.39075e-11 -3.50153e-24)
(0.5 -4.52112e-10 8.32152e-25)
(0.5 -6.6871e-08 6.64753e-26)
(0.5 4.08116e-09 5.81235e-24)
(0.5 -6.173e-09 0)
(0.5 -2.64846e-09 8.15699e-24)
(0.5 1.50662e-08 -2.58596e-24)
(0.5 -2.10444e-08 -1.2711e-24)
(0.5 1.67275e-09 7.5147e-27)
(0.5 -2.06278e-10 0)
(0.5 -8.38826e-09 -5.67702e-24)
(0.5 -1.26617e-07 0)
(0.5 -2.03158e-09 -7.37351e-24)
(0.5 -2.25775e-09 0)
(0.5 1.80966e-09 -1.36835e-24)
(0.5 4.75434e-08 2.51116e-24)
(0.5 8.77361e-09 -1.97579e-24)
(0.5 -5.65433e-08 -4.84335e-25)
(0.5 9.77392e-09 1.95536e-24)
(0.5 1.03997e-08 -7.29175e-24)
(0.5 2.12748e-10 0)
(0.5 5.86914e-09 -6.85215e-24)
(0.5 -1.47438e-08 0)
(0.5 4.7768e-09 0)
(0.5 1.43403e-08 -6.15413e-25)
(0.5 9.07926e-08 -1.77289e-24)
(0.5 -1.21347e-08 -8.66395e-24)
(0.5 -1.18951e-08 6.06305e-24)
(0.5 -1.09498e-08 0)
(0.5 -1.21844e-07 6.80592e-25)
(0.5 -3.99986e-09 0)
(0.5 -1.49263e-08 2.86435e-24)
(0.5 8.37966e-10 -3.58502e-24)
(0.5 3.50804e-08 2.81851e-24)
(0.5 3.97753e-09 0)
(0.5 3.71454e-08 2.26783e-24)
(0.5 -2.37516e-08 -4.62357e-24)
(0.5 -3.25525e-08 -1.48387e-25)
(0.5 1.31546e-08 0)
(0.5 -9.93058e-09 -5.51337e-24)
(0.5 2.24118e-09 0)
(0.5 8.96323e-10 3.8336e-24)
(0.5 3.02259e-09 1.88835e-24)
(0.5 -2.34978e-09 0)
(0.5 2.72981e-08 -1.93122e-24)
(0.5 9.60458e-09 -8.40645e-25)
(0.5 -6.64469e-09 0)
(0.5 9.8906e-09 0)
(0.5 -2.10769e-08 -7.15018e-24)
(0.5 2.58666e-08 2.47507e-24)
(0.5 -6.99056e-09 2.42933e-24)
(0.5 -1.55807e-08 0)
(0.5 1.65001e-09 0)
(0.5 -4.74795e-08 6.27182e-24)
(0.5 1.23208e-08 5.81228e-24)
(0.5 5.80595e-09 -3.18584e-26)
(0.5 -9.75618e-09 4.20313e-24)
(0.5 -1.06733e-09 0)
(0.5 1.70498e-08 -3.42586e-24)
(0.5 -1.13408e-07 -2.04429e-24)
(0.5 3.96976e-09 -6.84218e-24)
(0.5 1.38526e-09 0)
(0.5 1.50086e-08 -1.73959e-24)
(0.5 5.44039e-08 1.08671e-24)
(0.5 -2.41271e-08 -2.37902e-24)
(0.5 6.39645e-09 0)
(0.5 6.92118e-09 3.20975e-24)
(0.5 -1.9521e-08 0)
(0.5 3.40362e-09 0)
(0.5 2.06991e-08 -2.85327e-24)
(0.5 7.7946e-09 2.77472e-24)
(0.5 -1.00268e-08 -5.56164e-24)
(0.5 -8.79446e-09 3.74492e-24)
(0.5 -1.19936e-08 3.25697e-24)
(0.5 -2.65014e-08 -3.27326e-25)
(0.5 3.74369e-09 -3.25857e-24)
(0.5 1.53725e-08 3.41179e-24)
(0.5 -6.24128e-08 -3.64166e-24)
(0.5 1.10621e-08 0)
(0.5 1.42398e-08 0)
(0.5 3.82828e-10 0)
(0.5 -1.86496e-09 -3.55278e-24)
(0.5 2.31279e-09 -4.02348e-24)
(0.5 -1.13708e-08 -1.22404e-24)
(0.5 -1.22099e-09 -7.2564e-24)
(0.5 -7.05301e-09 -1.32731e-24)
(0.5 2.21002e-08 2.76305e-24)
(0.5 9.45648e-11 -6.6418e-24)
(0.5 4.02155e-08 4.12816e-24)
(0.5 1.07791e-08 -6.97661e-24)
(0.5 7.38378e-09 -1.82014e-24)
(0.5 1.47794e-08 3.55454e-24)
(0.5 8.42366e-09 0)
(0.5 7.44384e-09 -5.41736e-24)
(0.5 1.55373e-08 -1.94537e-24)
(0.5 -1.35209e-09 -1.20671e-25)
(0.5 2.74374e-10 1.86417e-24)
(0.5 -1.19141e-08 1.70448e-24)
(0.5 -3.78122e-09 -8.94204e-24)
(0.5 6.02047e-09 9.18487e-24)
(0.5 1.48948e-08 -4.16469e-24)
(0.5 1.25959e-08 0)
(0.5 1.11411e-08 -8.7849e-24)
(0.5 1.239e-08 -3.09554e-24)
(0.5 -1.93924e-09 6.91821e-24)
(0.5 -1.11974e-08 6.86177e-24)
(0.5 1.64942e-08 -2.87869e-24)
(0.5 -6.11581e-08 9.86695e-25)
(0.5 -6.46525e-08 3.48644e-24)
(0.5 7.44726e-11 0)
(0.5 -1.57867e-08 -7.76013e-25)
(0.5 5.8487e-08 3.6263e-24)
(0.5 2.32961e-08 -4.10603e-24)
(0.5 1.51754e-08 -3.15538e-24)
(0.5 2.70866e-10 6.81036e-24)
(0.5 3.02158e-11 -7.48745e-24)
(0.5 -1.15597e-08 0)
(0.5 -3.81754e-09 3.37638e-24)
(0.5 -6.85054e-09 -4.09546e-24)
(0.5 -4.16915e-08 2.40578e-24)
(0.5 -1.00697e-08 6.29417e-24)
(0.5 -6.80989e-08 0)
(0.5 1.8679e-09 1.04028e-23)
(0.5 -1.41893e-08 -1.91622e-26)
(0.5 -2.22316e-08 -3.50226e-24)
(0.5 2.23552e-08 -1.71895e-24)
(0.5 -2.24916e-09 0)
(0.5 6.72085e-09 6.82196e-24)
(0.5 1.88806e-08 -7.37947e-24)
(0.5 2.46209e-08 -4.72158e-24)
(0.5 2.66738e-08 -4.66339e-24)
(0.5 2.71263e-08 0)
(0.5 -8.37019e-09 6.26571e-24)
(0.5 1.71882e-08 -6.1266e-24)
(0.5 1.14589e-08 -9.47622e-24)
(0.5 -3.7201e-08 -3.79991e-24)
(0.5 -3.35897e-09 -2.635e-24)
(0.5 2.22203e-09 0)
(0.5 2.90643e-09 4.98828e-24)
(0.5 -4.5692e-09 8.63018e-24)
(0.5 -1.33156e-09 7.61032e-24)
(0.5 1.75377e-09 0)
(0.5 7.48863e-09 0)
(0.5 -6.79842e-10 -5.44617e-24)
(0.5 -6.13546e-08 9.00979e-25)
(0.5 -7.59637e-09 2.34571e-26)
(0.5 -2.27375e-08 -9.52271e-25)
(0.5 -1.26647e-08 -7.6909e-24)
(0.5 9.35016e-09 -3.73305e-24)
(0.5 2.80244e-09 0)
(0.5 4.79868e-09 -7.91178e-24)
(0.5 4.34504e-09 -1.85275e-24)
(0.5 1.1431e-08 3.26033e-24)
(0.5 1.62157e-08 -3.0823e-24)
(0.5 3.08341e-08 2.38693e-24)
(0.5 -7.48914e-08 4.34316e-25)
(0.5 -5.98846e-08 -4.32508e-24)
(0.5 8.35886e-09 2.9802e-24)
(0.5 9.91486e-09 1.35219e-24)
(0.5 -1.43875e-08 1.63317e-24)
(0.5 -3.97557e-09 -7.32798e-24)
(0.5 -6.07715e-08 0)
(0.5 -1.02964e-08 0)
(0.5 5.63819e-09 -3.83299e-24)
(0.5 -1.14032e-07 3.09349e-24)
(0.5 -7.98906e-08 -4.72464e-24)
(0.5 2.76395e-09 -7.12979e-24)
(0.5 9.55458e-09 -7.61566e-24)
(0.5 3.68406e-08 0)
(0.5 -1.08609e-08 -4.24266e-25)
(0.5 4.27481e-09 1.94654e-24)
(0.5 1.54301e-09 0)
(0.5 -1.25669e-08 0)
(0.5 -2.8076e-08 7.32239e-25)
(0.5 -6.74442e-09 0)
(0.5 -5.65886e-08 3.88712e-24)
(0.5 -1.10002e-10 -2.07902e-24)
(0.5 5.85599e-09 -8.48486e-25)
(0.5 2.77418e-09 2.96738e-24)
(0.5 2.88301e-09 -2.21309e-26)
(0.5 -1.11579e-09 3.728e-24)
(0.5 8.9436e-08 0)
(0.5 2.29238e-08 -6.30705e-24)
(0.5 -1.18154e-08 6.7913e-24)
(0.5 1.44139e-09 -6.27924e-27)
(0.5 1.12847e-08 -6.27577e-25)
(0.5 1.18624e-10 0)
(0.5 3.55172e-09 -1.94892e-24)
(0.5 -4.105e-08 -2.40625e-24)
(0.5 2.57669e-08 6.9474e-25)
(0.5 7.54668e-09 -3.90418e-24)
(0.5 6.22376e-09 1.1048e-23)
(0.5 -9.72182e-09 2.20171e-24)
(0.5 6.30243e-09 -1.80374e-24)
(0.5 6.23237e-10 0)
(0.5 9.75434e-09 -2.95125e-24)
(0.5 5.03758e-09 3.89884e-24)
(0.5 2.24996e-09 2.52416e-24)
(0.5 -2.49954e-08 -1.67849e-25)
(0.5 2.04012e-08 -1.09665e-24)
(0.5 1.26296e-08 -1.08524e-23)
(0.5 3.36243e-09 0)
(0.5 -4.19589e-08 -1.60502e-24)
(0.5 -3.82168e-09 3.18936e-24)
(0.5 4.38449e-09 6.6452e-24)
(0.5 -1.31959e-08 6.34654e-24)
(0.5 9.51422e-09 6.92515e-24)
(0.5 1.34856e-08 -3.46018e-24)
(0.5 -2.2014e-09 0)
(0.5 1.92354e-09 -2.9483e-24)
(0.5 9.97716e-10 0)
(0.5 -1.6643e-08 0)
(0.5 -1.01645e-09 0)
(0.5 -1.11623e-09 -5.78482e-24)
(0.5 -7.68027e-09 4.11402e-25)
(0.5 -3.36927e-08 1.17099e-24)
(0.5 1.43386e-09 -1.53716e-24)
(0.5 -7.30976e-09 -1.89318e-24)
(0.5 7.48118e-08 3.06011e-24)
(0.5 -4.5506e-10 7.33118e-24)
(0.5 -1.56813e-08 4.26696e-24)
(0.5 -1.97951e-09 3.90604e-24)
(0.5 7.37662e-10 0)
(0.5 2.51909e-08 3.89164e-24)
(0.5 6.00109e-09 8.00376e-24)
(0.5 1.08518e-09 0)
(0.5 3.82665e-09 0)
(0.5 -8.63605e-09 0)
(0.5 -3.59716e-08 8.95295e-25)
(0.5 -2.48845e-09 -7.48974e-24)
(0.5 -5.72719e-09 6.99073e-24)
(0.5 -2.14384e-09 -9.75788e-24)
(0.5 -5.67493e-09 0)
(0.5 -6.61481e-09 -4.21421e-24)
(0.5 1.2844e-09 -7.65672e-24)
(0.5 3.60851e-09 6.31674e-24)
(0.5 2.01033e-08 0)
(0.5 -2.90781e-09 0)
(0.5 1.06219e-09 3.27265e-24)
(0.5 -4.47366e-08 1.94939e-24)
(0.5 -4.16565e-10 -9.02746e-25)
(0.5 3.39299e-09 0)
(0.5 -5.5546e-09 1.13574e-23)
(0.5 8.80819e-09 7.60573e-24)
(0.5 -5.02552e-08 -1.13269e-24)
(0.5 -2.04074e-09 0)
(0.5 7.9586e-09 0)
(0.5 4.49505e-09 -3.46319e-24)
(0.5 3.14489e-09 -1.23848e-24)
(0.5 -1.55563e-08 0)
(0.5 5.80327e-09 -3.8614e-24)
(0.5 -5.34702e-09 1.70786e-24)
(0.5 3.84948e-09 0)
(0.5 3.98784e-09 3.71462e-24)
(0.5 3.43442e-08 -3.64302e-24)
(0.5 -3.12479e-08 4.1642e-24)
(0.5 -4.50378e-09 0)
(0.5 -7.4259e-09 8.10076e-24)
(0.5 -2.87605e-09 0)
(0.5 3.84096e-08 -2.28684e-25)
(0.5 1.43431e-08 0)
(0.5 -4.90015e-08 -2.8527e-25)
(0.5 1.08014e-09 -7.03248e-24)
(0.5 -1.67691e-08 6.12909e-24)
(0.5 5.77156e-09 0)
(0.5 4.73634e-09 -1.40055e-24)
(0.5 -9.91317e-08 0)
(0.5 -2.48088e-08 -2.83193e-24)
(0.5 2.09481e-08 3.68304e-24)
(0.5 4.58439e-09 -7.86983e-24)
(0.5 1.39227e-08 -6.62384e-24)
(0.5 2.06404e-08 -3.24173e-24)
(0.5 -1.37515e-08 3.03391e-24)
(0.5 -9.78887e-09 -5.37525e-24)
(0.5 2.60158e-08 -1.56853e-24)
(0.5 -6.06204e-09 -4.63978e-24)
(0.5 1.17332e-09 7.63832e-24)
(0.5 -2.20341e-10 0)
(0.5 9.37925e-09 -6.81039e-24)
(0.5 1.73533e-08 -8.50584e-24)
(0.5 1.71585e-09 2.86712e-24)
(0.5 -2.61886e-09 -3.70049e-24)
(0.5 3.92987e-09 -2.85241e-24)
(0.5 2.64947e-08 0)
(0.5 1.14794e-09 0)
(0.5 2.34193e-08 -5.14243e-24)
(0.5 2.32354e-08 3.05473e-24)
(0.5 1.45238e-08 -3.18056e-24)
(0.5 -5.08617e-09 1.61007e-24)
(0.5 -1.37009e-09 6.55532e-24)
(0.5 -1.11732e-09 -6.51836e-24)
(0.5 3.00604e-08 0)
(0.5 5.51446e-09 0)
(0.5 2.55676e-09 2.09836e-25)
(0.5 1.3402e-08 5.46449e-26)
(0.5 2.77382e-09 2.46234e-25)
(0.5 -3.41929e-08 0)
(0.5 -6.29823e-09 6.04602e-27)
(0.5 -3.55713e-10 0)
(0.5 -4.50037e-10 1.41957e-24)
(0.5 2.9776e-09 -7.85097e-24)
(0.5 8.95761e-11 2.85056e-24)
(0.5 2.49015e-08 -3.87461e-24)
(0.5 8.46962e-10 0)
(0.5 1.89003e-09 9.31968e-25)
(0.5 -4.96577e-09 1.96799e-24)
(0.5 1.90265e-08 -5.79624e-24)
(0.5 -1.72583e-09 1.67718e-24)
(0.5 -2.66594e-10 -2.07893e-24)
(0.5 3.21213e-09 -6.31091e-24)
(0.5 3.98025e-08 5.86609e-25)
(0.5 2.11893e-08 -1.40311e-24)
(0.5 1.30188e-09 1.72511e-24)
(0.5 -3.39826e-09 -1.54989e-24)
(0.5 -9.45641e-10 -1.87433e-24)
(0.5 -1.42203e-09 -6.76829e-24)
(0.5 2.57492e-08 3.71188e-24)
(0.5 2.95752e-09 5.62548e-24)
(0.5 -1.19522e-10 -8.06281e-24)
(0.5 -1.73387e-09 1.03585e-23)
(0.5 -2.99941e-09 -1.44483e-24)
(0.5 -3.08287e-08 -2.42174e-24)
(0.5 6.70061e-09 -6.91281e-24)
(0.5 2.41249e-08 -6.43862e-24)
(0.5 2.55097e-08 -3.25489e-26)
(0.5 -6.4708e-08 0)
(0.5 -7.88212e-11 -7.52748e-24)
(0.5 -1.86247e-08 3.74698e-24)
(0.5 -5.16849e-09 -1.58453e-24)
(0.5 1.1072e-08 2.32237e-24)
(0.5 -2.46067e-08 -6.41501e-24)
(0.5 -3.42247e-08 -2.08115e-24)
(0.5 5.32187e-09 7.82555e-24)
(0.5 1.23308e-08 0)
(0.5 1.38584e-09 -2.27784e-24)
(0.5 -4.47789e-08 1.68128e-24)
(0.5 -2.14979e-09 0)
(0.5 -1.31086e-08 1.17401e-23)
(0.5 1.24368e-10 -3.37381e-24)
(0.5 -6.25886e-09 1.93293e-24)
(0.5 -3.63233e-08 -2.36467e-24)
(0.5 2.2223e-09 -2.87322e-24)
(0.5 4.3109e-08 0)
(0.5 5.4329e-09 -7.52486e-24)
(0.5 -3.11972e-08 -3.05334e-25)
(0.5 7.12996e-09 7.91786e-24)
(0.5 9.43327e-09 5.99465e-24)
(0.5 2.33428e-09 9.57118e-25)
(0.5 -5.32308e-09 -3.45431e-24)
(0.5 2.7174e-08 -1.54336e-24)
(0.5 7.90942e-09 0)
(0.5 1.37898e-08 0)
(0.5 -7.67546e-09 4.38064e-26)
(0.5 3.48635e-08 3.91226e-24)
(0.5 -5.41708e-08 -2.26696e-24)
(0.5 3.6214e-08 -4.92045e-24)
(0.5 2.50062e-08 0)
(0.5 -2.13321e-08 -1.10806e-25)
(0.5 -8.12425e-09 6.31744e-24)
(0.5 -3.30146e-09 -2.9392e-24)
(0.5 1.55533e-08 0)
(0.5 3.15716e-09 0)
(0.5 1.55337e-08 5.26993e-24)
(0.5 -1.69128e-09 1.5466e-24)
(0.5 -6.41034e-10 -1.56588e-24)
(0.5 -2.38319e-09 1.85158e-24)
(0.5 -6.67628e-09 1.89239e-24)
(0.5 -4.82338e-08 0)
(0.5 -1.13798e-08 0)
(0.5 2.21027e-08 -4.70974e-24)
(0.5 -3.68972e-10 -1.45986e-23)
(0.5 4.15861e-09 6.28785e-24)
(0.5 -7.81169e-09 3.72573e-24)
(0.5 -6.90447e-09 8.522e-25)
(0.5 6.48723e-09 -3.47213e-24)
(0.5 3.96227e-08 6.39463e-24)
(0.5 -5.06212e-08 1.24179e-24)
(0.5 -2.93522e-08 -1.27173e-24)
(0.5 -1.61128e-09 -4.24321e-24)
(0.5 -2.97397e-08 0)
(0.5 1.78572e-09 -1.56695e-23)
(0.5 -3.65867e-08 -2.08167e-24)
(0.5 1.03497e-08 6.17166e-24)
(0.5 -2.33234e-09 0)
(0.5 -4.09257e-09 -1.64648e-24)
(0.5 -4.06924e-09 0)
(0.5 -3.16733e-08 -3.49902e-24)
(0.5 4.21833e-08 -1.90779e-24)
(0.5 4.84613e-09 -3.41718e-24)
(0.5 1.05474e-09 0)
(0.5 -8.19016e-10 0)
(0.5 -1.17254e-08 0)
(0.5 -1.5601e-08 -4.19141e-24)
(0.5 1.01256e-08 -7.33349e-24)
(0.5 1.0478e-08 4.45913e-24)
(0.5 -5.08999e-08 4.78659e-24)
(0.5 -3.1515e-08 0)
(0.5 5.37899e-09 -2.05329e-24)
(0.5 4.86839e-09 3.7327e-24)
(0.5 -9.76269e-09 0)
(0.5 6.64493e-09 0)
(0.5 -6.4518e-10 -1.24481e-24)
(0.5 6.51509e-09 -3.8151e-24)
(0.5 7.33434e-08 0)
(0.5 -4.66103e-08 2.84756e-24)
(0.5 -3.34063e-10 3.55219e-24)
(0.5 -4.46127e-08 -1.7898e-25)
(0.5 -1.09981e-08 3.39394e-24)
(0.5 1.8673e-10 3.35257e-24)
(0.5 3.8555e-09 -2.1272e-24)
(0.5 7.07423e-09 4.4692e-25)
(0.5 4.85797e-09 3.88026e-24)
(0.5 2.00785e-08 2.92838e-24)
(0.5 8.7874e-09 0)
(0.5 2.2676e-08 7.16149e-25)
(0.5 6.38383e-09 0)
(0.5 -2.5732e-10 -4.21464e-24)
(0.5 3.14029e-08 0)
(0.5 4.12663e-09 3.50847e-24)
(0.5 6.9679e-09 1.29237e-24)
(0.5 -6.88573e-09 -8.07608e-24)
(0.5 -3.48879e-09 -7.373e-24)
(0.5 -1.57479e-08 -1.10368e-24)
(0.5 -5.72225e-09 2.55005e-24)
(0.5 2.16967e-08 0)
(0.5 4.02685e-09 1.97039e-24)
(0.5 3.80219e-09 -1.18945e-25)
(0.5 1.51453e-10 0)
(0.5 3.23669e-09 -9.44798e-24)
(0.5 1.32358e-08 1.00738e-23)
(0.5 -2.45046e-08 1.081e-25)
(0.5 7.09606e-08 4.00237e-25)
(0.5 4.50905e-10 -9.07987e-25)
(0.5 1.71016e-08 0)
(0.5 -1.73796e-09 0)
(0.5 -3.08941e-09 -7.32037e-24)
(0.5 -9.41649e-09 -4.86221e-24)
(0.5 4.30781e-10 0)
(0.5 -1.05245e-07 0)
(0.5 4.86867e-09 3.57453e-24)
(0.5 3.22757e-09 0)
(0.5 1.29122e-08 0)
(0.5 -4.99294e-08 3.16957e-24)
(0.5 8.08786e-09 -6.59954e-24)
(0.5 -4.64979e-10 0)
(0.5 -1.96893e-08 0)
(0.5 3.13359e-08 2.53914e-24)
(0.5 -3.57811e-08 1.26341e-26)
(0.5 1.07424e-09 7.21616e-24)
(0.5 -2.83243e-08 -9.22818e-25)
(0.5 7.47416e-09 1.61353e-24)
(0.5 -7.56354e-08 1.69163e-24)
(0.5 1.13091e-08 -4.39181e-26)
(0.5 2.56726e-08 2.74698e-24)
(0.5 5.89808e-09 -6.71865e-24)
(0.5 -2.10156e-08 1.63727e-25)
(0.5 -3.15258e-08 1.20186e-24)
(0.5 2.00115e-09 0)
(0.5 -1.64705e-08 1.8304e-24)
(0.5 1.79719e-09 1.7824e-24)
(0.5 -2.83589e-09 -9.14995e-24)
(0.5 -6.94422e-08 5.39001e-25)
(0.5 -1.13498e-08 0)
(0.5 8.29087e-09 0)
(0.5 -1.73099e-08 8.38489e-27)
(0.5 -1.24857e-09 1.25386e-25)
(0.5 9.53251e-09 -4.94688e-24)
(0.5 1.271e-09 -2.45928e-24)
(0.5 -6.15376e-09 -3.33737e-24)
(0.5 -2.15216e-09 -8.7784e-25)
(0.5 7.96576e-09 9.25244e-27)
(0.5 -1.58118e-09 0)
(0.5 -4.96918e-09 -1.76546e-24)
(0.5 -1.86448e-08 0)
(0.5 -1.66554e-08 -3.6847e-24)
(0.5 7.27951e-10 -7.06254e-24)
(0.5 -2.68296e-09 -7.50796e-24)
(0.5 2.9797e-08 -2.88649e-24)
(0.5 4.77483e-08 5.20505e-24)
(0.5 -1.53364e-08 6.60548e-24)
(0.5 2.48469e-08 -1.63517e-24)
(0.5 1.47534e-08 3.17029e-24)
(0.5 -1.33501e-08 5.64382e-24)
(0.5 -6.43098e-09 5.44941e-24)
(0.5 -1.42685e-09 0)
(0.5 -6.33371e-08 4.75242e-24)
(0.5 -2.89783e-09 0)
(0.5 -2.73776e-08 0)
(0.5 -4.88956e-08 0)
(0.5 2.6225e-08 2.2329e-24)
(0.5 9.04706e-09 1.17923e-24)
(0.5 7.79097e-09 2.21949e-25)
(0.5 -2.57998e-08 0)
(0.5 1.20839e-08 -5.84722e-24)
(0.5 6.78251e-09 6.55345e-24)
(0.5 1.36975e-08 0)
(0.5 -2.05664e-08 1.62078e-24)
(0.5 -3.38586e-08 2.20842e-24)
(0.5 -1.35377e-08 4.94136e-24)
(0.5 4.02625e-09 3.94561e-24)
(0.5 -2.56256e-08 -2.99692e-24)
(0.5 -3.75436e-09 -5.65079e-24)
(0.5 3.62757e-09 -2.02018e-24)
(0.5 -2.67973e-08 3.95227e-24)
(0.5 9.06653e-09 -3.12296e-24)
(0.5 3.14846e-09 0)
(0.5 -2.149e-08 2.98071e-24)
(0.5 3.14061e-09 -5.67036e-24)
(0.5 2.68355e-09 -1.00594e-23)
(0.5 5.70956e-09 0)
(0.5 4.02478e-08 0)
(0.5 -6.02182e-09 -3.71295e-24)
(0.5 4.31137e-11 0)
(0.5 1.62263e-10 -5.73593e-24)
(0.5 -2.04322e-08 5.49731e-25)
(0.5 -9.03552e-08 0)
(0.5 -1.02317e-08 -4.51185e-24)
(0.5 4.32259e-10 3.83705e-24)
(0.5 2.56338e-10 0)
(0.5 -8.94185e-09 -7.12391e-24)
(0.5 6.77271e-10 -1.74761e-24)
(0.5 1.10157e-08 -2.60505e-24)
(0.5 5.06196e-09 3.71891e-24)
(0.5 4.61326e-08 -6.25171e-24)
(0.5 -2.84826e-09 0)
(0.5 1.26711e-09 -6.18025e-24)
(0.5 1.98116e-09 -7.32147e-24)
(0.5 3.94345e-09 2.84574e-24)
(0.5 1.59448e-08 -2.43368e-27)
(0.5 2.24017e-09 -3.01948e-24)
(0.5 9.08571e-09 -3.14412e-24)
(0.5 -5.9785e-09 0)
(0.5 5.00278e-09 3.68467e-24)
(0.5 -1.10431e-08 -9.20376e-24)
(0.5 3.20514e-09 3.45419e-24)
(0.5 7.99073e-08 -2.48368e-24)
(0.5 -6.20662e-09 -1.85577e-24)
(0.5 -8.09262e-08 5.25955e-25)
(0.5 -1.06033e-08 -1.1709e-25)
(0.5 -1.03538e-09 1.13875e-23)
(0.5 1.56353e-09 0)
(0.5 1.17224e-08 -2.34323e-24)
(0.5 -5.1135e-09 -6.52529e-24)
(0.5 4.62001e-09 -2.12765e-24)
(0.5 8.07554e-09 0)
(0.5 -8.29846e-09 7.7107e-24)
(0.5 2.35237e-09 0)
(0.5 2.53296e-09 3.4216e-24)
(0.5 6.79981e-10 7.74568e-25)
(0.5 -1.12407e-09 6.32243e-24)
(0.5 5.05139e-10 0)
(0.5 9.0859e-09 0)
(0.5 7.14124e-09 -1.15694e-23)
(0.5 3.08695e-08 -3.31602e-24)
(0.5 1.0108e-08 3.20274e-24)
(0.5 3.43852e-08 4.04065e-24)
(0.5 5.77427e-09 0)
(0.5 -2.08635e-08 -4.98349e-24)
(0.5 7.11534e-08 4.24923e-25)
(0.5 3.58537e-11 6.66408e-24)
(0.5 4.70719e-09 -7.09859e-24)
(0.5 4.49274e-09 7.60176e-24)
(0.5 3.43608e-09 -3.59812e-24)
(0.5 -2.12848e-08 6.71598e-24)
(0.5 -2.89381e-08 -9.49182e-24)
(0.5 1.0771e-08 -1.66459e-27)
(0.5 2.26531e-09 -7.10007e-24)
(0.5 -3.09681e-09 -6.07346e-24)
(0.5 -1.13474e-09 0)
(0.5 7.62283e-09 1.89829e-24)
(0.5 7.3504e-09 3.96818e-24)
(0.5 6.05354e-08 0)
(0.5 2.88576e-08 3.58622e-26)
(0.5 -4.40106e-08 0)
(0.5 3.26419e-08 4.77668e-24)
(0.5 -4.88482e-08 9.75471e-25)
(0.5 3.392e-09 9.36356e-27)
(0.5 -6.33143e-08 -1.92321e-24)
(0.5 6.12514e-09 0)
(0.5 5.45675e-10 2.96352e-24)
(0.5 7.94457e-10 -3.66127e-24)