/*--------------------------------*- C++ -*----------------------------------*\
  =========                 |
  \\      /  F ield         | OpenFOAM: The Open Source CFD Toolbox
   \\    /   O peration     | Website:  https://openfoam.org
    \\  /    A nd           | Version:  7
     \\/     M anipulation  |
\*---------------------------------------------------------------------------*/
FoamFile
{
    version     2.0;
    format      ascii;
    class       volScalarField;
    location    "7";
    object      p;
}
// * * * * * * * * * * * * * * * * * * * * * * * * * * * * * * * * * * * * * //

dimensions      [0 2 -2 0 0 0 0];

internalField   nonuniform List<scalar> 
13182
(
-0.0044869
-0.000856436
-0.00329924
-0.00472836
-0.00174954
-0.00426989
-0.00429909
-0.00462215
-0.00479164
-0.00219239
-0.00219498
-0.00262512
-0.00433305
-0.00428239
-0.00421158
-0.00440443
-0.00477122
-0.00485448
-0.00417655
-0.00421182
-0.00420274
-0.00456174
-0.00438635
-0.00382273
-0.00381293
-0.00384312
-0.00460643
-0.00379354
-0.00266934
-0.00486553
-0.00486471
-0.00476619
-0.00439429
-0.00216692
-0.00198752
-0.00420852
-0.00477731
-0.00287787
-0.0030833
-0.00459269
-0.000870241
-0.000989756
-0.00334656
-0.000440912
-0.00370626
-0.00159459
-0.00472274
-0.00309511
-0.00296707
-0.00469125
-0.00360745
-0.00364622
-0.00211651
-0.00462684
-0.00429277
-0.00385912
-0.00275404
-0.00466637
-0.0043045
-0.00482071
-0.0047785
-0.00473593
-0.00460684
-0.00395191
-0.00356297
-0.00353928
-0.00434997
-0.00374798
-0.00183621
-0.00400034
-0.000518963
-0.00456874
-0.00461522
-0.0037722
-0.000760288
-0.00477115
-0.0047692
-0.00469978
-0.00449219
-0.00448369
-0.0048566
-0.00211515
-0.00417245
-0.0042074
-0.000736174
-0.000768024
-0.000928002
-0.00231628
-0.00386887
-0.00394197
-0.00253589
-0.00478461
-0.00232567
-0.00230685
-0.00450307
-0.00468571
-0.00252963
-0.0044408
-0.00467261
-0.00419067
-0.00413705
-0.00279877
-0.00349021
-0.00428175
-0.0045118
-0.00363689
-0.00092661
-0.000891443
-0.00476757
-0.00303492
-0.00465511
-0.00130786
-0.00121455
-0.0042921
-0.00351948
-0.00230161
-0.00465031
-0.000723735
-0.00398401
-0.00393851
-0.00389811
-0.00180623
-0.00477508
-0.00422461
-0.00324342
-0.00313545
-0.0042279
-0.00481739
-0.00424553
-0.00282521
-0.000273527
-0.000249746
-0.00464677
-0.00168926
-0.00429393
-0.00478596
-0.00475461
-0.00398866
-0.00424399
-0.0044823
-0.00242672
-0.000759183
-0.000878251
-0.00349962
-0.00344851
-0.00465219
-0.00444756
-0.00163684
-0.00482906
-0.00290749
-0.000449927
-0.00357856
-0.00359485
-0.00282631
-0.00382581
-0.00378291
-0.000661031
-0.00142149
-0.00108121
-0.00374423
-0.00378626
-0.00283012
-0.00260845
-0.00461124
-0.00451503
-0.00340599
-0.00479911
-0.00399981
-0.00341831
-0.00159135
-0.00201648
-0.00434994
-0.00434224
-0.00032858
-0.00299784
-0.0045679
-0.00133507
-0.00250351
-0.00460835
-0.00423016
-0.00378088
-0.0028645
-0.00478946
-0.00405778
-0.00196518
-0.00295139
-0.00309062
-0.00454639
-0.00372409
-0.00362632
-0.00263552
-0.00478811
-0.00305164
-0.000739942
-0.00477742
-0.00334836
-0.00278825
-0.00414321
-0.00378984
-0.00391579
-0.00451296
-0.00451725
-0.000545476
-0.00468824
-0.00233079
-0.000683146
-0.00196174
-0.000210268
-0.00479271
-0.00219843
-0.00333442
-0.000182565
-0.00462714
-0.00429182
-0.00257502
-0.00404034
-0.00362225
-0.00479096
-0.00331981
-0.000458595
-0.00368339
-0.00378427
-0.000381133
-0.0042615
-0.00189616
-0.00477762
-0.00469462
-0.00485522
-0.00486691
-0.00455749
-0.00468628
-0.00447593
-0.00445816
-0.00430146
-0.00458001
-0.0046179
-0.00332133
-0.0046072
-0.00460101
-0.00443203
-0.000589151
-0.00062543
-0.00463574
-0.00438735
-0.0044079
-0.00425587
-0.00398286
-0.00396901
-0.00473891
-0.00397452
-0.00438816
-0.00227202
-0.00327159
-0.00331113
-0.000696901
-0.00477483
-0.00251089
-0.000437831
-0.000397092
-0.00135275
-0.00321307
-0.0047971
-0.00476312
-0.00489591
-0.00397496
-0.00342165
-0.00239066
-0.00465018
-0.00393088
-0.00472056
-0.00468137
-0.00467226
-0.00464268
-0.00278923
-0.00477676
-0.00279991
-0.00462866
-0.00460814
-0.00402296
-0.000685005
-0.00485696
-0.00305179
-0.00301479
-0.0042832
-0.0044283
-0.00289625
-0.00294298
-0.00485698
-0.00185092
-0.00468582
-0.00469544
-0.00225514
-0.00165816
-0.0037087
-0.00473691
-0.00473722
-0.00477559
-0.00477437
-0.00482429
-0.00481844
-0.0033903
-0.00392488
-0.00449418
-0.00448123
-0.00198945
-0.00148944
-0.00399847
-0.00410097
-0.00473246
-0.00339634
-0.00441463
-0.00482563
-0.00307521
-0.00462062
-0.00478713
-0.00478363
-0.00478675
-0.00431044
-0.00486625
-0.00250578
-0.00240666
-0.00165604
-0.00461251
-0.0046233
-0.00430017
-0.00475287
-0.00358966
-0.00416995
-0.00358344
-0.00296993
-0.00415854
-0.00417805
-0.00254269
-0.0025607
-0.00260675
-0.00391314
-0.00395319
-0.00415608
-0.00482087
-0.00211951
-0.000575523
-0.00460222
-0.00487931
-0.00185543
-0.0019186
-0.00468905
-0.00391296
-0.00395444
-0.00428321
-0.00376893
-0.00382173
-0.00478973
-0.00157873
-0.00457923
-0.0045736
-0.00470057
-0.00446217
-0.00447673
-0.00476887
-0.00447582
-0.00235509
-0.00480188
-0.0013544
-0.00456784
-0.00142067
-0.00165789
-0.00477651
-0.00450503
-0.00452038
-0.00323777
-0.00477925
-0.00453138
-0.00247124
-0.00317588
-0.0044182
-0.00476118
-0.00304185
-0.00205623
-0.000547046
-0.00420143
-0.00395456
-0.00246306
-0.00478085
-0.00428281
-0.00356353
-0.00363506
-0.00333896
-0.00459291
-0.00177871
-0.00419915
-0.00377778
-0.00484234
-0.00484453
-0.0041818
-0.004158
-0.00466263
-0.00477819
-0.00229559
-0.00326902
-0.00461507
-0.00240566
-0.00226866
-0.00403846
-0.00478226
-0.00463429
-0.00275635
-0.00380463
-0.00479879
-0.00475202
-0.00348461
-0.00419581
-0.00421253
-0.00245685
-0.00352637
-0.00488118
-0.00163688
-0.00471438
-0.00205609
-0.00327499
-0.00440177
-0.00340948
-0.00450144
-0.00478787
-0.00479301
-0.00487634
-0.0020641
-0.00463566
-0.00362489
-0.00446542
-0.0044924
-0.000602547
-0.00381683
-0.00401713
-0.00469857
-0.00450114
-0.00186204
-0.00437925
-0.00310685
-0.00215573
-0.00433936
-0.00109703
-0.00321012
-0.00329893
-0.00410655
-0.00359955
-0.00473287
-0.00118498
-0.00476572
-0.00235578
-0.0048529
-0.0046659
-0.00278518
-0.00274297
-0.00472002
-0.00129373
-0.00391096
-0.004894
-0.00478245
-0.00477989
-0.00464919
-0.00479595
-0.00449872
-0.00143527
-0.00460983
-0.00468503
-0.00486103
-0.00319999
-0.00319619
-0.00476906
-0.00448672
-0.00448839
-0.00154105
-0.00483857
-0.00375598
-0.00155133
-0.00315992
-0.00483212
-0.00252531
-0.00483292
-0.00475351
-0.00474207
-0.00477064
-0.00343273
-0.0046493
-0.000737028
-0.00250537
-0.00411828
-0.00260859
-0.00175764
-0.000897996
-0.00469513
-0.00354077
-0.00474414
-0.00136526
-0.00489737
-0.00298599
-0.00380776
-0.000783524
-0.00437209
-0.002159
-0.00472783
-0.00461657
-0.00475669
-0.00157747
-0.00248429
-0.00425019
-0.00467722
-0.00467132
-0.00326807
-0.00286529
-0.00293388
-0.0029921
-0.00437933
-0.00393353
-0.0037113
-0.00438357
-0.00311815
-0.00470061
-0.00422332
-0.00126631
-0.00425673
-0.00454966
-0.00456
-0.00295607
-0.00337891
-0.00344353
-0.00468733
-0.00378335
-0.00484652
-0.0037686
-0.00378563
-0.00463171
-0.0043895
-0.00442392
-0.000433576
-0.0042608
-0.00423983
-0.00265826
-0.0038274
-0.00368428
-0.00414162
-0.00245568
-0.00485675
-0.00291121
-0.00438679
-0.00354567
-0.00348043
-0.00454352
-0.00278861
-0.00479861
-0.00484361
-0.00446194
-0.00447455
-0.00452954
-0.00450778
-0.00472828
-0.00487315
-0.00462583
-0.00392639
-0.00463202
-0.00173781
-0.0048126
-0.00451957
-0.00371809
-0.00467334
-0.00452528
-0.00373303
-0.00122845
-0.00287275
-0.00416983
-0.00409445
-0.00242543
-0.00236296
-0.00380596
-0.00476438
-0.00457892
-0.00449385
-0.00431759
-0.00461408
-0.00309727
-0.00410312
-0.00213377
-0.00474461
-0.00444264
-0.00439257
-0.00414574
-0.0047738
-0.00458445
-0.0046
-0.00312779
-0.00313574
-0.000921021
-0.00451007
-0.00413641
-0.00440018
-0.00257964
-0.00338295
-0.00477907
-0.00489089
-0.00488008
-0.00465915
-0.00451943
-0.00452921
-0.00451295
-0.00213724
-0.0036939
-0.00212411
-0.00355784
-0.00478079
-0.00476671
-0.00484087
-0.00235603
-0.00461512
-0.00198993
-0.00321272
-0.00115964
-0.00268044
-0.00387629
-0.00211609
-0.00368412
-0.00472697
-0.00256909
-0.0044799
-0.00477448
-0.00200899
-0.00218999
-0.00485769
-0.00431735
-0.00205568
-0.00465658
-0.00486006
-0.00486262
-0.00399697
-0.00389201
-0.00199181
-0.00257
-0.00465166
-0.00450546
-0.00468295
-0.00430748
-0.00465062
-0.00263536
-0.00379965
-0.00452309
-0.00476901
-0.00175128
-0.00250002
-0.00467327
-0.00306753
-0.00186607
-0.00472188
-0.00471352
-0.00282003
-0.00478322
-0.00472847
-0.00241409
-0.00485973
-0.00323237
-0.0021481
-0.00244464
-0.00479578
-0.00307599
-0.00221905
-0.00414126
-0.00422257
-0.00419011
-0.00447119
-0.00447849
-0.00479545
-0.00355215
-0.00489838
-0.00441151
-0.00480003
-0.00414056
-0.0046747
-0.00156561
-0.00485681
-0.00454312
-0.00221972
-0.00470009
-0.00358349
-0.00473818
-0.00473674
-0.00262448
-0.00478327
-0.00250612
-0.00251307
-0.0023419
-0.00234084
-0.00474955
-0.00431603
-0.00433926
-0.00120069
-0.002639
-0.00477974
-0.00478114
-0.00447059
-0.00423179
-0.00380803
-0.00199835
-0.00475803
-0.00477529
-0.00460996
-0.00450811
-0.00154433
-0.00362016
-0.00467516
-0.00464589
-0.00103048
-0.00375337
-0.00458998
-0.004709
-0.00453264
-0.00451456
-0.00228712
-0.00249332
-0.00471284
-0.00472501
-0.0046364
-0.000558354
-0.00133353
-0.00272918
-0.0046973
-0.0041801
-0.00486638
-0.00489055
-0.00153849
-0.00126308
-0.00312094
-0.00489993
-0.00427479
-0.00408942
-0.0038955
-0.00446992
-0.00416577
-0.00299513
-0.00456048
-0.00475746
-0.00410817
-0.00359471
-0.00362904
-0.00471829
-0.00367583
-0.00368048
-0.00487558
-0.00233615
-0.00390361
-0.00408564
-0.00429042
-0.00374735
-0.00475538
-0.00236179
-0.00414124
-0.00449464
-0.00159413
-0.00477896
-0.00367703
-0.00413527
-0.00477
-0.0018435
-0.00459441
-0.00474977
-0.00164522
-0.0031413
-0.004764
-0.00481815
-0.003929
-0.00422899
-0.00275154
-0.00468654
-0.000788803
-0.000659542
-0.00469434
-0.00422315
-0.00477471
-0.00478919
-0.00230513
-0.0037787
-0.00466585
-0.00475906
-0.003753
-0.0028935
-0.00481451
-0.00381163
-0.000484818
-0.00040951
-0.00482787
-0.0041791
-0.00420162
-0.0031733
-0.00346017
-0.00136679
-0.00456501
-0.00229844
-0.00389147
-0.00204635
-0.00458473
-0.00445886
-0.00471588
-0.00233669
-0.00278329
-0.00363164
-0.00256123
-0.00462643
-0.00132166
-0.00474049
-0.00365114
-0.00475725
-0.00450938
-0.00406237
-0.00385376
-0.000610126
-0.00226284
-0.00242325
-0.00281337
-0.00129662
-0.00286514
-0.0047395
-0.00466274
-0.00372665
-0.00374082
-0.00486731
-0.00331897
-0.004054
-0.00402386
-0.0047387
-0.00214717
-0.00200203
-0.00428421
-0.00414511
-0.00464725
-0.00424837
-0.0046105
-0.00461302
-0.00393702
-0.00408521
-0.00152489
-0.00155414
-0.00286351
-0.00383832
-0.00482707
-0.00273551
-0.00405665
-0.00471648
-0.00433213
-0.00399525
-0.0040024
-0.00263762
-0.00404528
-0.00339326
-0.00473154
-0.00453886
-0.00420358
-0.00480787
-0.00427738
-0.00332166
-0.000250596
-0.00488974
-0.00467299
-0.000824135
-0.00421125
-0.00181957
-0.00485929
-0.00135738
-0.00347227
-0.0046776
-0.000897443
-0.00410166
-0.00448643
-0.00475498
-0.00477772
-0.00477597
-0.0037098
-0.00480697
-0.00354255
-0.00461169
-0.0045802
-0.000713558
-0.00475377
-0.00345132
-0.00459165
-0.00475084
-0.00161613
-0.00272998
-0.0039195
-0.00457195
-0.00479081
-0.00475612
-0.00384347
-0.0038226
-0.00442534
-0.000521152
-0.0045629
-0.0046971
-0.00287015
-0.00469392
-0.00259561
-0.00370137
-0.000322079
-0.00454112
-0.00191859
-0.00422766
-0.00276907
-0.00486334
-0.00465457
-0.00450799
-0.00280175
-0.002902
-0.00445289
-0.0012742
-0.00205329
-0.00179536
-0.00176204
-0.00332816
-0.00441532
-0.00322645
-0.00294247
-0.00301664
-0.00231974
-0.00454707
-0.00454312
-0.00284809
-0.00449255
-0.00479746
-0.000539272
-0.00477601
-0.0042785
-0.00421311
-0.00433647
-0.00462241
-0.00467523
-0.00452697
-0.00453085
-0.00285272
-0.00458264
-0.0043572
-0.00450324
-0.00410616
-0.00406419
-0.00409568
-0.00205878
-0.0037223
-0.00374236
-0.00467967
-0.00202907
-0.0032147
-0.00378128
-0.00253561
-0.00244381
-0.00365437
-0.00158465
-0.00454625
-0.00306752
-0.00415006
-0.00413019
-0.00299316
-0.00431055
-0.00197046
-0.00366101
-0.00476992
-0.00198643
-0.0048262
-0.00264277
-0.00249503
-0.00358033
-0.00487465
-0.00366024
-0.00474346
-0.00472967
-0.0042296
-0.00367767
-0.00455792
-0.00473702
-0.00418139
-0.000557399
-0.00202862
-0.00414942
-0.00462495
-0.00445116
-0.00441844
-0.00430648
-0.00177154
-0.00467892
-0.00379778
-0.00468121
-0.00271567
-0.00474909
-0.00368635
-0.00406104
-0.00409044
-0.00413532
-0.00422427
-0.00419417
-0.00417598
-0.00431274
-0.00143484
-0.00425618
-0.00036634
-0.004714
-0.00471059
-0.00470579
-0.00388539
-0.00428852
-0.00379634
-0.00484285
-0.00450419
-0.00446248
-0.00422121
-0.00126232
-0.00470135
-0.0019969
-0.00463908
-0.00486915
-0.00400284
-0.00400723
-0.00294335
-0.000316027
-0.00410329
-0.00220521
-0.00470332
-0.00475179
-0.00476205
-0.00476682
-0.0039035
-0.00391112
-0.00486466
-0.00477909
-0.00448849
-0.00489985
-0.00465375
-0.00480414
-0.00324407
-0.00336026
-0.000432874
-0.00300331
-0.00126401
-0.00452643
-0.00141263
-0.0047401
-0.00283337
-0.00479185
-0.00480421
-0.00471221
-0.00454389
-0.0017104
-0.00404034
-0.00377715
-0.00464426
-0.00337991
-0.00466209
-0.00286072
-0.00302114
-0.00371714
-0.000783669
-0.00473042
-0.00163759
-0.00162635
-0.00394988
-0.0048065
-0.00471295
-0.00254512
-0.00358909
-0.0043199
-0.00347452
-0.00397579
-0.00190383
-0.00111058
-0.00479025
-0.00351827
-0.00389239
-0.0029813
-0.00285026
-0.00280707
-0.00400696
-0.00488271
-0.00483102
-0.00398479
-0.0020109
-0.00268008
-0.00451652
-0.00479246
-0.0047914
-0.00141315
-0.00144791
-0.00476833
-0.00476017
-0.00480053
-0.00342984
-0.00361089
-0.00399886
-0.00136615
-0.0026682
-0.00459844
-0.0026629
-0.00266861
-0.00456757
-0.0041366
-0.00373192
-0.00373535
-0.00449079
-0.00415388
-0.00436407
-0.0011466
-0.00242119
-0.00308935
-0.00304731
-0.00461435
-0.00291265
-0.00475523
-0.00375215
-0.00362856
-0.00430808
-0.000689643
-0.00402435
-0.00212079
-0.00420549
-0.00451441
-0.000453475
-0.000384696
-0.00467228
-0.00124982
-0.0047843
-0.000772625
-0.00401022
-0.00441359
-0.00481047
-0.00470672
-0.00315048
-0.00431552
-0.00291777
-0.00447232
-0.00434535
-0.00437681
-0.00309679
-0.00302745
-0.00480457
-0.00102579
-0.00212742
-0.00480837
-0.00486626
-0.00483213
-0.00460235
-0.000462399
-0.00303709
-0.00307191
-0.00136331
-0.00447711
-0.00378264
-0.0040879
-0.00426437
-0.0017564
-0.00422668
-0.00265083
-0.00277166
-0.00485667
-0.00249381
-0.00446633
-0.00400251
-0.00258922
-0.00232925
-0.00469344
-0.00185909
-0.00131866
-0.00472521
-0.00379466
-0.00462312
-0.00445823
-0.000631048
-0.00357739
-0.00299185
-0.00462068
-0.00455527
-0.00458229
-0.00447832
-0.00473196
-0.00285317
-0.00451838
-0.00238032
-0.00369741
-0.00449394
-0.00407053
-0.00282552
-0.000273202
-0.00402377
-0.00470038
-0.00490384
-0.00393767
-0.00398596
-0.00129287
-0.00453295
-0.00394284
-0.00285875
-0.00363899
-0.00221793
-0.00429699
-0.00453028
-0.00453286
-0.00405425
-0.00365743
-0.00468203
-0.00453436
-0.00280154
-0.00276306
-0.00197249
-0.00134643
-0.00379873
-0.00451072
-0.00433386
-0.00302604
-0.00390581
-0.00451484
-0.00264847
-0.00470721
-0.00237218
-0.000798974
-0.00266093
-0.00469136
-0.00241873
-0.00429429
-0.00386659
-0.00341509
-0.00423257
-0.00387825
-0.00385476
-0.00353713
-0.00346018
-0.00392586
-0.000677642
-0.00469032
-0.004711
-0.00202322
-0.00478113
-0.001935
-0.00239165
-0.00317901
-0.00489136
-0.00457123
-0.00136498
-0.00113883
-0.00372215
-0.00443422
-0.0044998
-0.004202
-0.00310075
-0.00167068
-0.00483242
-0.00482792
-0.000374077
-0.00380454
-0.00156653
-0.00390287
-0.00466613
-0.0046511
-0.00454345
-0.00435277
-0.00465684
-0.00310686
-0.00439627
-0.00412041
-0.00412304
-0.00220706
-0.0036112
-0.0041433
-0.00471603
-0.00308664
-0.00361793
-0.00362803
-0.00297418
-0.00308906
-0.00306751
-0.00245415
-0.00465901
-0.0047394
-0.00408766
-0.00395997
-0.00375199
-0.00372532
-0.0030555
-0.00348804
-0.00474264
-0.00467678
-0.0043404
-0.00408472
-0.00412511
-0.00305175
-0.00482604
-0.00482259
-0.00472705
-0.003023
-0.00402132
-0.00406329
-0.0040544
-0.00408852
-0.00131923
-0.00461634
-0.00474882
-0.000998121
-0.000863604
-0.00418548
-0.00476754
-0.00475859
-0.00295811
-0.0046966
-0.00418482
-0.00170192
-0.00413924
-0.00421487
-0.00480473
-0.00480136
-0.00477721
-0.00472754
-0.00286818
-0.00466506
-0.00272989
-0.0027612
-0.00435318
-0.00360587
-0.00464691
-0.00309352
-0.00414407
-0.00402737
-0.0012377
-0.00161465
-0.00290868
-0.000874539
-0.0039509
-0.000779572
-0.00408148
-0.00466407
-0.00152178
-0.00343903
-0.0034265
-0.00478397
-0.00322958
-0.00445792
-0.00473905
-0.000554846
-0.00467529
-0.00479332
-0.00485042
-0.00442248
-0.004409
-0.0033234
-0.00458883
-0.00487502
-0.00327914
-0.0047393
-0.00473729
-0.00273055
-0.0027983
-0.00472155
-0.00311972
-0.00482922
-0.00479256
-0.00476464
-0.00477293
-0.00136235
-0.0047928
-0.00467921
-0.000870319
-0.00147566
-0.00358345
-0.00460932
-0.00362949
-0.00431648
-0.00414382
-0.00374772
-0.00434754
-0.00422776
-0.00469594
-0.00468118
-0.00434038
-0.00470672
-0.00489017
-0.00482972
-0.00284452
-0.00478137
-0.00475759
-0.00475784
-0.00335532
-0.0034195
-0.00475493
-0.00393069
-0.00479257
-0.00470309
-0.00421501
-0.0048945
-0.00213487
-0.00328955
-0.00461716
-0.00418602
-0.00420682
-0.00262709
-0.0037179
-0.00405634
-0.0046671
-0.00222646
-0.0042671
-0.00477787
-0.00483557
-0.00483795
-0.00455146
-0.00485846
-0.00474032
-0.00258998
-0.00475304
-0.00452013
-0.0046509
-0.00371948
-0.00485841
-0.00326311
-0.00268286
-0.00473418
-0.0047296
-0.00424301
-0.000634239
-0.00419625
-0.00316867
-0.00364007
-0.00389901
-0.00391596
-0.00391338
-0.0029951
-0.00403452
-0.0048527
-0.00478932
-0.00361151
-0.00436413
-0.003362
-0.00324251
-0.00463651
-0.00382416
-0.00377738
-0.00362111
-0.0031468
-0.00452454
-0.00410546
-0.00457233
-0.00487383
-0.0036223
-0.00479149
-0.00477939
-0.00477846
-0.0010596
-0.00371129
-0.00368761
-0.000647933
-0.00316215
-0.00252189
-0.00446091
-0.00462934
-0.00468703
-0.0039094
-0.00194296
-0.00199967
-0.00466929
-0.00385554
-0.00480744
-0.00199436
-0.0048229
-0.00482252
-0.00470762
-0.00431047
-0.00315646
-0.000840684
-0.00174977
-0.00346229
-0.00361014
-0.0045799
-0.00123884
-0.00127645
-0.00162787
-0.00474006
-0.00474547
-0.0045383
-0.00403388
-0.00329394
-0.00358173
-0.00311045
-0.00269685
-0.00350697
-0.00217139
-0.0042059
-0.0046366
-0.00433166
-0.00431973
-0.00479081
-0.00222558
-0.00335513
-0.0045065
-0.0028373
-0.00269697
-0.00300179
-0.00161434
-0.00426785
-0.00429927
-0.00466567
-0.00287714
-0.00358497
-0.00478767
-0.00478835
-0.00339343
-0.00339941
-0.00147719
-0.00458475
-0.00309099
-0.000758562
-0.00426515
-0.00278097
-0.00168017
-0.000717505
-0.00441639
-0.00441745
-0.00197483
-0.00478876
-0.00066018
-0.00483911
-0.00459289
-0.00263988
-0.00460399
-0.00459069
-0.00389706
-0.00471245
-0.00214695
-0.00258089
-0.00394095
-0.00373973
-0.00483903
-0.00478019
-0.00402256
-0.00141923
-0.00173428
-0.00479453
-0.00479674
-0.00479153
-0.00490377
-0.00266989
-0.00451628
-0.00254817
-0.00252869
-0.00453218
-0.00473329
-0.00470789
-0.00480846
-0.0018956
-0.00219539
-0.000849918
-0.00365838
-0.00364548
-0.00406097
-0.0042357
-0.00398616
-0.00489311
-0.00169572
-0.0046389
-0.00395872
-0.00488963
-0.00140189
-0.00454656
-0.00311737
-0.00227185
-0.00249559
-0.00116771
-0.00414211
-0.00423878
-0.00145821
-0.00161278
-0.000906708
-0.00135744
-0.00456814
-0.002752
-0.00219647
-0.00230459
-0.00463111
-0.00130793
-0.00424081
-0.00483821
-0.000451507
-0.00463946
-0.003471
-0.00154867
-0.00382157
-0.0029069
-0.00407838
-0.00386245
-0.00168345
-0.00471607
-0.00458026
-0.00464129
-0.00450761
-0.00479709
-0.00490203
-0.00129536
-0.00399489
-0.00464512
-0.00283779
-0.00255805
-0.00468442
-0.00467268
-0.00433092
-0.00339758
-0.00456608
-0.00474422
-0.00474182
-0.00482875
-0.0046075
-0.00170432
-0.00182132
-0.00389221
-0.00460181
-0.00473089
-0.00473478
-0.00475239
-0.00473887
-0.00394985
-0.00476971
-0.0042178
-0.00423866
-0.0042841
-0.00447398
-0.00132413
-0.00487774
-0.00460234
-0.00160954
-0.00471732
-0.00276991
-0.00465309
-0.00211294
-0.00476584
-0.00484043
-0.00463276
-0.00259832
-0.00246178
-0.00476258
-0.00485666
-0.00460328
-0.00467436
-0.000870394
-0.00270038
-0.00437127
-0.00425232
-0.00406929
-0.00403466
-0.00464628
-0.00488212
-0.00422333
-0.0047553
-0.00407323
-0.00483108
-0.00427809
-0.0042748
-0.00463434
-0.00380925
-0.00447785
-0.00369382
-0.00454196
-0.000898722
-0.00236737
-0.00463683
-0.00179621
-0.00350863
-0.00319485
-0.000955094
-0.00453348
-0.00392834
-0.00478223
-0.00457599
-0.00297356
-0.000327268
-0.00442227
-0.00464754
-0.00286484
-0.00172246
-0.00251274
-0.00246918
-0.00262809
-0.00356312
-0.00457816
-0.00471902
-0.00388428
-0.00297698
-0.00444418
-0.00476636
-0.00458705
-0.00415776
-0.00458007
-0.00403459
-0.000428914
-0.00457229
-0.00340616
-0.00332167
-0.00210182
-0.00296691
-0.00490071
-0.00490205
-0.00420925
-0.000693984
-0.00298294
-0.00473837
-0.0014955
-0.00463256
-0.00475154
-0.0019923
-0.00210381
-0.000860046
-0.00258513
-0.00486068
-0.00473982
-0.00411093
-0.00483009
-0.00449664
-0.00388267
-0.00486804
-0.00467674
-0.00424049
-0.00474112
-0.00246388
-0.00476147
-0.00178983
-0.00183452
-0.00270781
-0.00401329
-0.00477949
-0.00448132
-0.00437258
-0.0011976
-0.00483902
-0.00476008
-0.00372994
-0.00376778
-0.0034107
-0.0033149
-0.00428891
-0.00431671
-0.00404539
-0.00479418
-0.00176182
-0.00452839
-0.000720566
-0.00386173
-0.0044605
-0.00150459
-0.0047474
-0.00473533
-0.00465299
-0.00479002
-0.00479216
-0.00477563
-0.00439756
-0.00490421
-0.00421161
-0.00378623
-0.00484759
-0.00413063
-0.00463454
-0.00242652
-0.00268267
-0.00296409
-0.00419855
-0.0048897
-0.00489162
-0.00281566
-0.00381851
-0.00471481
-0.00423551
-0.00456264
-0.00124577
-0.00210994
-0.00224451
-0.00222677
-0.00489224
-0.00408536
-0.00417969
-0.00344262
-0.00455519
-0.00463389
-0.00478018
-0.00478735
-0.00144851
-0.00138652
-0.00281492
-0.00252008
-0.00478089
-0.00467144
-0.00405329
-0.000603972
-0.00471773
-0.00219214
-0.00341481
-0.000292723
-0.0033181
-0.00321758
-0.00420817
-0.00168119
-0.00438304
-0.00436537
-0.00437002
-0.00417005
-0.00387177
-0.00464347
-0.00475506
-0.00261799
-0.00482508
-0.0048633
-0.00225897
-0.00460388
-0.00254565
-0.00411272
-0.00408638
-0.00464113
-0.00465341
-0.00348329
-0.00442364
-0.00446874
-0.00448772
-0.00226304
-0.00313564
-0.00321515
-0.00455937
-0.00111412
-0.0044518
-0.00287341
-0.0029904
-0.00445276
-0.00415575
-0.00471626
-0.000535079
-0.00460441
-0.004582
-0.003854
-0.00136176
-0.00479141
-0.00465153
-0.00389514
-0.0048551
-0.00388808
-0.00465033
-0.00370092
-0.00466565
-0.00260175
-0.00225039
-0.00229096
-0.004738
-0.00276937
-0.00440088
-0.00406915
-0.00439574
-0.00285116
-0.00336893
-0.00400663
-0.00477914
-0.0047787
-0.0045325
-0.00411248
-0.00436003
-0.00178436
-0.00482188
-0.00363987
-0.00363118
-0.00235666
-0.00469513
-0.00299848
-0.00181329
-0.00401156
-0.00472851
-0.00473217
-0.00446424
-0.00476492
-0.00487073
-0.00390147
-0.00196136
-0.00428877
-0.000709179
-0.00207908
-0.00386566
-0.0038624
-0.000463679
-0.00486513
-0.00217053
-0.000931826
-0.00474248
-0.00259211
-0.00461844
-0.00158274
-0.00339693
-0.00471599
-0.00478979
-0.00488117
-0.00476408
-0.00401406
-0.00474593
-0.00465075
-0.00462618
-0.00476865
-0.00480233
-0.00288789
-0.00388353
-0.00188022
-0.00430005
-0.00262609
-0.00187108
-0.00315251
-0.00262584
-0.00475786
-0.00380647
-0.00385551
-0.0015432
-0.00407131
-0.00482052
-0.00392174
-0.000310905
-0.00038426
-0.00481914
-0.00415953
-0.000498576
-0.0031567
-0.00471409
-0.0046029
-0.00196485
-0.00427927
-0.00476557
-0.00477822
-0.00181452
-0.0020106
-0.000772273
-0.00409083
-0.00409282
-0.0046934
-0.00384406
-0.00384551
-0.000395311
-0.00142046
-0.00329851
-0.000231952
-0.00406433
-0.00479135
-0.00140889
-0.00168144
-0.000704839
-0.00479187
-0.00473029
-0.00473876
-0.00482976
-0.00482521
-0.00451644
-0.00255661
-0.0025797
-0.00474644
-0.00474672
-0.00470452
-0.00474967
-0.0048959
-0.00459297
-0.00457333
-0.00383639
-0.00142405
-0.00345946
-0.00363813
-0.00229263
-0.00406392
-0.00473125
-0.00474557
-0.00287135
-0.0039319
-0.00477349
-0.00486679
-0.00490335
-0.00144415
-0.00303933
-0.00421807
-0.00230484
-0.00471685
-0.00476729
-0.00380111
-0.00380528
-0.00302653
-0.00406792
-0.00439494
-0.00289624
-0.00474046
-0.00456171
-0.00449342
-0.00446763
-0.00444029
-0.000812958
-0.00281734
-0.00293213
-0.00444764
-0.00479928
-0.00384784
-0.00119337
-0.000933959
-0.00101552
-0.00272645
-0.00210811
-0.00468219
-0.0047406
-0.00435557
-0.00113271
-0.00433663
-0.00485182
-0.00477468
-0.00408489
-0.00480642
-0.00488932
-0.00489278
-0.00413762
-0.0046541
-0.00450101
-0.00128861
-0.00469246
-0.00463448
-0.00280754
-0.00319283
-0.00405733
-0.00433743
-0.00432704
-0.00464105
-0.00385698
-0.00464184
-0.00157488
-0.00308432
-0.00313115
-0.00361979
-0.00363432
-0.00341083
-0.00332828
-0.00280773
-0.00379315
-0.00133847
-0.00148149
-0.00485421
-0.00482857
-0.00483434
-0.00482095
-0.000513353
-0.000462853
-0.00447678
-0.00434868
-0.0036369
-0.00244282
-0.0020842
-0.00445582
-0.00376229
-0.00421526
-0.00455024
-0.000239114
-0.00176656
-0.00362096
-0.00423981
-0.00425077
-0.00368742
-0.00476861
-0.00482161
-0.000238945
-0.000263634
-0.00476849
-0.00169144
-0.00461347
-0.00292534
-0.00225506
-0.00386214
-0.00456596
-0.00430087
-0.00261738
-0.00258969
-0.00475895
-0.00420609
-0.00454184
-0.00131715
-0.00482116
-0.00264438
-0.00268702
-0.00462944
-0.00358377
-0.00453111
-0.00426372
-0.00425288
-0.00204557
-0.00292739
-0.00136224
-0.00063446
-0.000641376
-0.000603906
-0.00478512
-0.00478527
-0.00413174
-0.00424333
-0.00463377
-0.00470413
-0.00471304
-0.00397832
-0.00344065
-0.000643588
-0.00480421
-0.00472409
-0.00371111
-0.00397833
-0.0039719
-0.00242289
-0.00405306
-0.00446499
-0.00311945
-0.00454344
-0.00471746
-0.00482265
-0.00466452
-0.000208782
-0.00342837
-0.00490382
-0.00431186
-0.0042736
-0.00400085
-0.00436058
-0.00436837
-0.00292709
-0.00191736
-0.00435082
-0.00343672
-0.00416518
-0.00420848
-0.0045626
-0.00366968
-0.00404488
-0.00365783
-0.0035959
-0.00284887
-0.00474993
-0.00451463
-0.00478058
-0.00481637
-0.0013394
-0.004343
-0.00246199
-0.00263665
-0.00437392
-0.00350911
-0.00457163
-0.00403344
-0.00266441
-0.00305153
-0.000513529
-0.0029575
-0.00216747
-0.00480106
-0.00459174
-0.00470095
-0.00039855
-0.000355108
-0.0047801
-0.00403871
-0.00216772
-0.00422843
-0.00435882
-0.00430266
-0.00487642
-0.00462311
-0.00307731
-0.0032666
-0.00333187
-0.00490051
-0.00483725
-0.00465061
-0.00465409
-0.00446579
-0.00442918
-0.00278753
-0.00346823
-0.00280175
-0.00403
-0.00418881
-0.00402187
-0.00479145
-0.00471712
-0.00477464
-0.0047693
-0.00469134
-0.00478677
-0.00129058
-0.00356789
-0.00371817
-0.00452886
-0.00451907
-0.00457971
-0.00139478
-0.00263713
-0.00356735
-0.00363929
-0.000865062
-0.00337798
-0.00214734
-0.00411352
-0.00274429
-0.0027712
-0.00255931
-0.00470902
-0.00478007
-0.00482894
-0.00472153
-0.00449213
-0.00310177
-0.00301294
-0.00428821
-0.00434377
-0.00254548
-0.00137059
-0.00148548
-0.00441167
-0.00326591
-0.0032636
-0.00142453
-0.00153757
-0.00469755
-0.0018603
-0.00192043
-0.00232245
-0.0046668
-0.00442458
-0.00060603
-0.00227198
-0.00434899
-0.00423353
-0.00288168
-0.00326224
-0.00401596
-0.00477451
-0.00106271
-0.00322764
-0.00387851
-0.000818628
-0.00443097
-0.00449421
-0.00389905
-0.00417395
-0.00481271
-0.00481096
-0.00456944
-0.00291496
-0.00250006
-0.00328113
-0.00424982
-0.00470475
-0.0027933
-0.00371624
-0.0046117
-0.00434624
-0.00105088
-0.00285216
-0.00378062
-0.00285096
-0.00136892
-0.0037727
-0.00236701
-0.00432047
-0.00395206
-0.00480224
-0.00373109
-0.0045231
-0.00468039
-0.0036307
-0.004022
-0.0020576
-0.00195827
-0.00281838
-0.00371609
-0.00330324
-0.000727208
-0.00434467
-0.00409382
-0.00425652
-0.0007008
-0.00390336
-0.00447363
-0.00484066
-0.00483692
-0.00467412
-0.00235837
-0.00426739
-0.00124545
-0.00114363
-0.00390296
-0.00458713
-0.00473528
-0.00470924
-0.0047241
-0.00460696
-0.00460371
-0.00447106
-0.00301985
-0.00478369
-0.00456186
-0.00388584
-0.0041111
-0.00480872
-0.00478148
-0.00448681
-0.00455401
-0.00379986
-0.00404377
-0.0045743
-0.00478883
-0.00121953
-0.00313914
-0.000445913
-0.000789016
-0.000753913
-0.00423776
-0.00427572
-0.00427977
-0.00432072
-0.00443824
-0.000967901
-0.00436193
-0.00146915
-0.00146776
-0.00361283
-0.00305744
-0.00488623
-0.00335662
-0.00459822
-0.00333866
-0.000530655
-0.00428513
-0.00246017
-0.00453145
-0.00444348
-0.00480375
-0.00479354
-0.00349601
-0.00396281
-0.00477496
-0.00231412
-0.00320556
-0.00388865
-0.0030741
-0.00137681
-0.0011734
-0.00420669
-0.00453967
-0.00467506
-0.00454115
-0.00405171
-0.00444597
-0.0006056
-0.00486981
-0.00487227
-0.00132885
-0.00476957
-0.000820984
-0.00190968
-0.00475149
-0.00478037
-0.00445234
-0.00443392
-0.00462328
-0.00370713
-0.00370346
-0.00477965
-0.00474437
-0.00473372
-0.00408045
-0.0039865
-0.00482784
-0.00482895
-0.00470569
-0.0040635
-0.00140118
-0.00417467
-0.00465526
-0.00445296
-0.00116519
-0.00395037
-0.00406008
-0.00169475
-0.00367716
-0.0035204
-0.00398367
-0.00256507
-0.00469518
-0.00462751
-0.0046251
-0.000298103
-0.00468048
-0.00477776
-0.00115002
-0.00119578
-0.00307968
-0.00331037
-0.00332739
-0.00466762
-0.00404892
-0.00308103
-0.0046388
-0.00149391
-0.00442217
-0.00128655
-0.00393523
-0.00392315
-0.00299521
-0.00286373
-0.00475569
-0.00445373
-0.00443032
-0.00432745
-0.00346707
-0.00288203
-0.00485662
-0.0027149
-0.0045769
-0.00482305
-0.00436839
-0.00128452
-0.00448374
-0.00453627
-0.00439198
-0.00325501
-0.000280253
-0.00480262
-0.00368699
-0.00485762
-0.000578397
-0.00490128
-0.00152374
-0.00386952
-0.00364986
-0.00141753
-0.0043609
-0.00478611
-0.00169235
-0.00183698
-0.00151123
-0.00340287
-0.001885
-0.00215176
-0.0013801
-0.00298197
-0.00471981
-0.00477164
-0.00388562
-0.00104735
-0.00112787
-0.00239474
-0.00387193
-0.00465916
-0.00484012
-0.00484398
-0.00291872
-0.00404913
-0.00143841
-0.00148953
-0.00153983
-0.00490019
-0.00453312
-0.00424358
-0.00456661