/*--------------------------------*- C++ -*----------------------------------*\
  =========                 |
  \\      /  F ield         | OpenFOAM: The Open Source CFD Toolbox
   \\    /   O peration     | Website:  https://openfoam.org
    \\  /    A nd           | Version:  7
     \\/     M anipulation  |
\*---------------------------------------------------------------------------*/
FoamFile
{
    version     2.0;
    format      ascii;
    class       surfaceScalarField;
    location    "7";
    object      phi;
}
// * * * * * * * * * * * * * * * * * * * * * * * * * * * * * * * * * * * * * //

dimensions      [0 3 -1 0 0 0 0];

internalField   nonuniform List<scalar> 
19623
(
-6.55875e-07
7.2675e-07
-7.08753e-08
7.88147e-07
-6.09636e-07
-1.78511e-07
2.31251e-07
-5.71249e-07
3.39998e-07
-6.645e-07
6.546e-07
9.90018e-09
-4.11998e-07
6.47e-07
-2.35002e-07
-4.17224e-07
6.76911e-07
-2.59687e-07
2.86626e-07
-7.0385e-07
-1.32975e-07
-5.253e-07
6.58275e-07
-6.33688e-07
4.5235e-07
1.81338e-07
8.29987e-07
-4.57369e-07
-3.72618e-07
6.67989e-07
1.61999e-07
-8.31244e-08
-4.14751e-07
4.97876e-07
-4.61875e-07
7.46375e-07
-2.845e-07
-2.32375e-07
5.97874e-07
-3.65499e-07
7.76749e-07
-5.37373e-07
-2.39376e-07
7.16476e-07
-3.26501e-07
-3.89975e-07
5.90688e-07
-7.11325e-07
1.20637e-07
3.87676e-07
2.37324e-07
3.34213e-07
3.54137e-07
-6.88349e-07
5.896e-07
-2.55387e-07
-7.75043e-07
4.84631e-07
2.90412e-07
-5.80624e-07
-1.68374e-07
7.48998e-07
-5.62875e-07
-9.49989e-09
5.72375e-07
-8.1771e-07
4.75237e-07
3.42474e-07
6.2775e-07
-6.3175e-07
4.00026e-09
-4.89987e-08
6.76748e-07
-6.74675e-07
5.57122e-08
6.18963e-07
-3.35212e-07
-4.82498e-07
-4.55997e-07
3.72873e-07
-1.35588e-07
-5.33887e-07
6.69475e-07
-6.47838e-07
5.1225e-07
-2.56625e-07
6.45512e-07
-3.88887e-07
-6.87751e-07
5.92252e-07
9.54995e-08
3.54746e-07
1.67002e-07
-5.21748e-07
6.63497e-07
-3.08751e-07
5.09499e-07
2.6725e-07
6.90125e-07
-3.90875e-07
-2.9925e-07
-2.36497e-07
6.43997e-07
-4.075e-07
-6.90121e-07
3.7624e-08
6.52497e-07
-7.13574e-07
3.891e-07
3.24475e-07
2.57675e-07
3.64126e-07
-6.21801e-07
-2.46034e-07
5.03709e-07
2.65599e-07
-6.39333e-07
3.73734e-07
4.86536e-07
-7.04462e-07
2.17926e-07
3.70748e-07
3.15499e-07
-6.86247e-07
6.09123e-07
-6.96373e-07
8.72498e-08
8.045e-07
-3.77875e-07
-4.26625e-07
-2.34126e-07
6.4532e-07
-4.11194e-07
4.28099e-07
-6.62225e-07
7.4825e-07
-4.6525e-07
-2.83e-07
4.73748e-07
-6.4975e-07
1.76001e-07
-4.5502e-08
5.1925e-07
-2.29249e-07
6.36123e-07
-4.06875e-07
3.47504e-08
4.8875e-07
-5.235e-07
7.37501e-07
-7.08754e-08
-6.66626e-07
4.03742e-08
-5.04125e-07
4.6375e-07
4.65127e-07
-6.62752e-07
1.97625e-07
-6.27499e-07
5.77125e-07
5.03748e-08
3.20501e-07
4.17e-07
5.72625e-07
-7.565e-07
1.83875e-07
7.23125e-07
-6.34375e-07
-8.875e-08
2.3625e-08
-5.2625e-07
5.02625e-07
-7.11163e-07
2.67575e-07
4.43588e-07
-5.02499e-07
-2.3475e-07
7.37249e-07
3.64122e-07
-6.87747e-07
3.23626e-07
7.32248e-07
-3.68126e-07
4.25226e-07
2.9125e-07
6.615e-07
-5.63e-07
-9.85004e-08
-5.55126e-07
1.43127e-07
7.75875e-07
-4.5475e-07
-3.21125e-07
4.50122e-07
7.86256e-08
-5.28748e-07
4.82374e-07
1.7025e-07
-6.52624e-07
7.36248e-07
-7.36248e-07
5.04376e-07
1.57124e-07
5.3716e-07
1.17376e-07
-6.54536e-07
-4.195e-07
6.39625e-07
-2.20125e-07
4.05637e-07
1.99363e-07
-6.05e-07
5.21087e-07
-4.55627e-08
-4.75525e-07
-3.69374e-07
6.35e-07
-2.65625e-07
-6.775e-07
3.08126e-07
-5.93837e-07
-1.39888e-07
7.33725e-07
3.3502e-08
-5.7925e-07
5.45748e-07
7.10437e-07
-9.67625e-08
-6.13674e-07
1.19598e-07
5.90838e-07
5.02336e-07
3.48241e-08
7.86868e-07
-6.33744e-07
-1.53124e-07
2.53122e-07
5.33745e-07
-6.55999e-07
1.16876e-07
5.39123e-07
7.45626e-07
-3.01381e-08
-7.15488e-07
1.70863e-07
5.74763e-07
3.49873e-07
-6.10751e-07
2.60878e-07
5.47875e-07
-4.4425e-07
-1.03625e-07
7.54501e-07
-6.34251e-07
-1.2025e-07
4.72624e-07
2.81877e-07
3.41249e-07
2.22626e-07
-5.63874e-07
-1.661e-07
5.64813e-07
-3.98713e-07
-5.20122e-07
-6.26258e-08
5.82748e-07
-3.73751e-07
-3.14e-07
3.50513e-07
-5.16613e-07
3.91374e-07
2.79125e-07
-6.705e-07
6.26372e-07
-2.34998e-07
-3.99998e-09
5.92649e-07
-5.88649e-07
-1.245e-07
5.43248e-07
-4.18749e-07
5.29124e-07
1.4225e-07
-6.71374e-07
-6.39487e-07
1.35375e-07
5.04112e-07
-6.21254e-08
3.84126e-07
-3.22e-07
-5.53749e-07
6.08867e-08
4.92862e-07
-1.24128e-07
6.42119e-07
-5.17992e-07
1.06875e-07
-5.26375e-07
-6.90121e-07
-5.27125e-07
-3.87375e-08
5.65862e-07
-3.44898e-07
6.79871e-07
-3.34973e-07
2.88508e-07
-6.33406e-07
2.25624e-07
-5.4475e-07
3.19126e-07
-4.88513e-07
3.64013e-07
-1.37498e-07
-4.56623e-07
5.94121e-07
-3.80375e-07
4.15125e-07
6.84625e-07
-4.94122e-07
-1.90503e-07
5.47e-07
-1.62696e-09
-5.45373e-07
3.02251e-07
-5.3725e-07
2.34999e-07
-2.675e-07
5.69751e-07
-6.9287e-07
6.9287e-07
-8.87875e-08
6.43387e-07
-5.546e-07
1.20562e-07
4.80911e-07
-6.01473e-07
4.35623e-07
-6.58748e-07
2.23126e-07
6.56248e-07
-2.20625e-07
-4.91288e-07
-2.83756e-07
4.511e-07
1.8525e-07
-6.3635e-07
1.25863e-07
3.86448e-07
-5.12311e-07
5.52376e-07
-8.7249e-08
-5.00869e-07
-1.24126e-07
-4.88196e-07
-1.36801e-07
5.70762e-07
8.38747e-08
-6.54637e-07
-7.02784e-07
5.69862e-07
1.32923e-07
-3.37874e-07
5.63498e-07
3.6975e-07
-6.75525e-07
3.05775e-07
5.97312e-07
-1.91675e-07
2.24363e-07
4.32476e-07
-6.56839e-07
4.40575e-07
1.90487e-07
-6.31062e-07
-2.01375e-07
5.42624e-07
-4.88997e-07
-8.94979e-08
-5.44246e-07
-6.57746e-07
5.68248e-07
-4.20373e-07
-2.64124e-07
6.84497e-07
2.75497e-07
-6.9587e-07
-2.426e-07
-3.9515e-07
6.3775e-07
-7.08998e-07
1.57749e-07
5.51249e-07
7.63e-07
-5.64251e-07
-1.98749e-07
-3.56937e-07
-1.90463e-07
5.474e-07
7.25762e-07
1.46754e-08
-7.40438e-07
-1.32996e-07
-5.06376e-07
6.39372e-07
-5e-07
-1.87747e-07
-5.50626e-07
5.06253e-08
-6.27997e-07
1.72e-07
-6.39864e-07
7.36527e-07
-9.66631e-08
4.29126e-07
-3.88751e-07
-4.05248e-07
7.0812e-07
-3.02873e-07
4.92967e-07
-1.60078e-07
-3.32889e-07
2.07021e-07
5.81126e-07
5.05749e-07
1.09125e-07
-6.14874e-07
-2.20875e-07
7.26623e-07
3.815e-07
-6.17997e-07
-5.823e-07
3.18338e-07
2.63963e-07
-3.50625e-07
7.37125e-07
-3.865e-07
3.75612e-07
2.95112e-07
-6.70724e-07
7.28624e-07
-3.56874e-07
-3.7175e-07
-1.34375e-07
-4.22e-07
5.56375e-07
-5.02499e-07
5.46124e-07
1.825e-07
-7.43999e-07
3.64377e-07
3.79623e-07
-5.58122e-07
-1.61497e-07
7.19619e-07
4.36248e-07
2.66125e-07
-7.02373e-07
6.78998e-07
-2.4275e-07
6.07496e-07
-1.57374e-07
5.99677e-07
-1.84351e-07
-4.15326e-07
4.97125e-07
3.35002e-08
-5.30625e-07
3.30001e-07
-6.55748e-07
3.25747e-07
5.34749e-07
-1.84876e-07
-4.55875e-07
-1.8425e-07
6.40125e-07
5.99288e-07
-4.73424e-07
-6.95625e-07
8.37494e-08
6.11875e-07
3.26123e-07
4.06495e-07
-7.32618e-07
4.06e-07
2.19e-07
6.96925e-07
-4.72562e-07
-7.72601e-07
2.86386e-07
4.86215e-07
1.48376e-07
-7.18372e-07
5.69997e-07
-5.09125e-07
6.57501e-07
-1.1975e-07
6.16875e-07
-4.97352e-07
6.12265e-07
-1.14913e-07
4.74499e-07
2.55375e-07
-7.29874e-07
2.66312e-07
-6.56914e-07
3.90602e-07
4.11e-07
1.36875e-07
-5.86126e-07
6.05539e-07
-1.94129e-08
5.69752e-07
-7.04753e-07
1.35001e-07
5.47625e-07
-7.5425e-07
2.06625e-07
-8.61507e-08
5.24215e-07
-4.38065e-07
6.86995e-07
-3.60872e-07
-7.53001e-07
4.77126e-07
2.75875e-07
-3.185e-07
7.18623e-07
-4.00124e-07
5.77752e-07
-7.24526e-07
1.46775e-07
-4.3575e-07
-9.07498e-08
5.265e-07
1.99249e-07
-7.04117e-07
4.18442e-07
2.85674e-07
2.42e-07
5.0625e-07
-6.04498e-07
4.67e-07
-3.45878e-07
6.43252e-07
-2.97374e-07
-5.02052e-07
-2.70549e-07
-3.00121e-07
-3.24869e-07
-5.1925e-07
-4.69998e-08
5.6625e-07
-2.54248e-07
-2.67001e-07
5.21249e-07
-3.67624e-07
5.98875e-07
-3.00993e-07
-3.23995e-07
3.82825e-07
2.781e-07
-6.60925e-07
-8.16625e-07
4.8775e-07
3.28875e-07
-7.17098e-07
7.17098e-07
2.83747e-08
-4.92625e-07
4.6425e-07
-4.7925e-07
2.22501e-08
4.57e-07
-7.1575e-07
1.965e-07
-5.51874e-07
-1.93753e-08
-4.92399e-07
-1.32599e-07
-1.91002e-07
5.6175e-07
-1.22125e-07
-4.29374e-07
5.51499e-07
-1.38462e-07
-1.375e-07
5.78074e-07
-7.34437e-07
5.77414e-07
1.57024e-07
7.62375e-07
-7.22499e-08
4.98375e-07
-1.17875e-07
-3.805e-07
6.67763e-07
-2.80087e-07
7.241e-07
-5.20338e-07
-2.03762e-07
-1.8425e-07
-5.21e-07
7.0525e-07
6.46e-07
-5.72625e-07
-7.3375e-08
-7.33873e-07
5.32498e-07
-8.36251e-08
-6.50248e-07
3.25374e-07
-5.57749e-07
1.45625e-07
-6.015e-07
-2.44025e-07
-4.3065e-07
-4.80333e-07
7.45932e-07
2.66249e-07
3.34875e-07
-6.01124e-07
-4.29886e-07
6.96136e-07
1.27126e-07
4.65126e-07
6.87495e-07
-1.2412e-07
-5.63375e-07
-1.32751e-07
8.20247e-07
-2.3e-07
-4.09875e-07
6.39875e-07
8.575e-07
-5.99625e-07
-2.57875e-07
4.8125e-07
3.7625e-07
6.71749e-07
-7.38749e-08
4.6625e-07
-7.83625e-07
3.17375e-07
5.78624e-07
-1.12374e-07
5.90001e-07
-7.91375e-07
2.01375e-07
-6.30638e-07
6.45026e-07
-1.43882e-08
4.63124e-07
1.08751e-07
-5.71875e-07
-6.81336e-07
4.97783e-08
6.31558e-07
7.27375e-07
-4.39626e-07
-2.87749e-07
5.33625e-07
1.9375e-07
2.16959e-07
-6.09388e-07
3.92429e-07
2.6075e-07
2.96875e-07
-5.57625e-07
8.19244e-08
-5.0026e-07
4.18336e-07
-6.34243e-07
1.33374e-07
-6.21534e-07
1.33338e-07
2.52517e-07
3.77035e-07
-6.29552e-07
-7.92245e-07
5.02747e-07
2.89498e-07
3.8305e-07
-5.54537e-07
1.71488e-07
6.34625e-07
-7.60875e-07
1.2625e-07
-4.17638e-07
-2.03975e-07
6.21613e-07
6.14601e-07
-3.68492e-08
-4.78898e-07
-1.26838e-07
6.05736e-07
2.80502e-07
3.11237e-07
-5.53837e-07
6.80501e-07
9.98956e-10
-6.815e-07
-2.623e-07
-2.154e-07
4.777e-07
6.71124e-07
-3.69612e-07
-3.01512e-07
4.806e-07
1.90525e-07
2.58249e-07
4.77999e-07
7.16259e-08
5.05124e-07
-5.7675e-07
6.01e-07
1.05002e-08
-6.115e-07
-4.66121e-07
6.77499e-07
-2.11377e-07
-5.06125e-07
7.5225e-07
-2.46125e-07
9.71253e-08
-6.0325e-07
5.44625e-07
2.3125e-07
2.98125e-07
2.563e-07
-5.54426e-07
3.61687e-07
-6.23525e-07
2.61838e-07
-7.13626e-07
4.27126e-07
2.865e-07
-2.82374e-07
-4.31252e-07
-3.05001e-08
5.59625e-07
-6.0075e-07
5.55751e-07
4.49996e-08
-6.70873e-07
4.11874e-07
2.58999e-07
-3.29874e-07
-3.40999e-07
5.8085e-07
3.13873e-08
-6.12237e-07
-2.49002e-07
-4.90496e-07
7.39498e-07
4.715e-07
2.6875e-08
3.13525e-07
2.07562e-07
4.68556e-07
-6.76544e-07
2.07988e-07
-7.60378e-07
4.74627e-07
2.85751e-07
-5.06372e-07
5.85998e-07
-7.96253e-08
-5.225e-07
2.602e-07
-5.72e-07
6.33e-07
-6.1e-08
1.68875e-07
4.88e-07
-6.56875e-07
6.935e-07
-5.24625e-07
-7.01127e-08
-5.57375e-07
6.27488e-07
-6.02225e-07
5.32112e-07
5.87428e-07
-3.27888e-07
-2.59539e-07
-5.0725e-07
-1.05623e-07
6.12874e-07
6.84838e-07
-5.28663e-07
-1.56175e-07
5.28662e-07
1.56175e-07
-4.45371e-07
-2.22027e-07
6.67398e-07
6.0133e-07
-1.08363e-07
6.29874e-07
-5.34748e-07
-9.51258e-08
-4.87374e-07
7.07622e-07
-2.20249e-07
-5.48162e-07
-1.16338e-07
-1.64633e-08
6.03891e-07
-6.46251e-07
4.55001e-08
7.06763e-07
-4.36725e-07
-2.70038e-07
6.5595e-07
-7.62451e-07
1.06501e-07
-5.65825e-07
5.7265e-07
-6.82543e-09
6.1675e-07
-2.1075e-07
5.19625e-07
-6.08412e-07
7.2365e-07
-2.04025e-07
-7.45125e-07
-7.15003e-08
-1.77037e-07
-5.79338e-07
7.56375e-07
2.37872e-07
-6.88999e-07
4.51127e-07
-2.9775e-07
5.86376e-07
-2.88626e-07
2.50375e-07
-6.14874e-07
3.645e-07
7.89249e-07
-2.14125e-07
-5.75125e-07
1.87749e-07
6.015e-07
-1.28e-07
5.92e-07
-4.63999e-07
5.4075e-07
-7.45125e-07
2.04375e-07
-4.57438e-07
6.6379e-07
-2.06352e-07
6.10375e-07
-6.81125e-07
7.07498e-08
-3.96139e-07
-1.45299e-07
5.41438e-07
6.29752e-08
6.62787e-07
7.87372e-07
-4.64999e-07
-3.22373e-07
2.49999e-07
5.45623e-07
-9.89996e-08
-4.46623e-07
4.2175e-07
1.23873e-07
-5.38873e-07
1.87515e-08
-3.39749e-07
6.945e-07
-3.5475e-07
3.79626e-07
-7.19376e-07
-1.50413e-07
5.22576e-07
-3.72163e-07
4.49975e-07
2.56788e-07
3.98843e-08
4.80135e-07
-5.20019e-07
5.56951e-07
-2.58825e-07
-5.1795e-07
-1.93213e-07
6.72948e-07
-5.85424e-07
-8.75238e-08
6.98994e-07
-6.43757e-08
-6.34619e-07
5.57474e-08
6.43247e-07
5.95225e-07
-2.817e-07
7.09374e-07
-3.73874e-07
-3.355e-07
6.24875e-07
8.4499e-08
-1.1225e-07
5.2825e-07
-4.16e-07
-3.49197e-07
6.84759e-07
-3.35561e-07
-6.66372e-07
3.17175e-07
-6.38e-07
5.03625e-07
4.64626e-07
2.98374e-07
6.11874e-07
-5.80999e-07
-3.08745e-08
1.00999e-07
5.10874e-07
4.4225e-07
-6.62125e-07
2.19875e-07
-1.26e-07
5.16125e-07
-3.90125e-07
-4.885e-07
3.625e-07
1.10625e-07
4.90375e-07
-6.91113e-07
5.70751e-07
1.20363e-07
-6.69999e-07
5.16749e-07
1.5325e-07
-7.4575e-07
3.2375e-07
3.52498e-07
-5.985e-07
2.46002e-07
5.83374e-07
4.38714e-07
1.86833e-07
-6.25548e-07
6.24661e-09
6.02876e-07
7.66874e-08
5.14e-07
2.75175e-07
3.18037e-07
-5.93212e-07
-4.53875e-07
7.2905e-07
3.70824e-07
-4.56975e-07
7.3975e-07
-5.45625e-07
-1.94125e-07
1.005e-07
-5.9375e-07
4.9325e-07
6.02134e-07
-5.2021e-07
-6.69372e-07
5.53999e-07
1.15373e-07
4.01875e-07
1.17e-07
-5.18875e-07
6.7175e-07
-6.2275e-07
-4.89999e-08
-3.70016e-08
4.64127e-07
7.76496e-07
-4.15749e-07
-3.60747e-07
-6.64961e-07
1.72562e-07
-6.49749e-07
-9.11239e-08
7.40873e-07
5.54624e-07
-7.62408e-09
2.74672e-07
4.5025e-07
-7.24922e-07
7.03875e-07
-1.5625e-07
6.93124e-07
-2.83749e-07
-4.09375e-07
3.67875e-07
-5.97876e-07
2.30001e-07
2.1656e-07
-6.12699e-07
-4.95362e-07
-7.03374e-07
5.59625e-07
1.4375e-07
6.86872e-07
-4.40372e-07
-2.465e-07
2.4275e-07
3.37001e-07
-5.79751e-07
7.24999e-07
-3.11874e-07
-4.13125e-07
-7.91838e-07
3.65413e-07
4.26425e-07
-4.5375e-07
-3.38087e-07
-5.51124e-07
-1.72739e-07
7.23863e-07
-6.47887e-07
6.98438e-07
-2.89325e-07
-4.09113e-07
1.14e-07
6.2575e-07
5.19625e-07
-4.86123e-07
-4.80734e-08
-4.47288e-07
7.45506e-08
-5.04437e-07
-4.21325e-07
-1.85871e-07
6.07196e-07
-6.17902e-07
1.96576e-07
7.89499e-07
-3.56375e-07
-4.33123e-07
-5.40625e-07
-1.37625e-07
6.7825e-07
-4.87112e-07
5.61663e-07
4.96122e-07
-6.97622e-07
2.015e-07
5.78825e-07
-1.95775e-07
-5.1975e-07
7.3825e-07
-2.185e-07
9.79246e-08
-5.55362e-07
6.93625e-07
-3.37001e-07
-3.56624e-07
6.78624e-07
1.5001e-08
-5.16272e-08
5.21077e-07
-4.6945e-07
7.55249e-07
-3.88123e-07
-3.67126e-07
3.30588e-07
2.19613e-07
-5.502e-07
5.55125e-07
-1.54e-07
-4.01124e-07
-1.33e-07
5.7525e-07
-7.88355e-07
2.56572e-07
5.31783e-07
4.68276e-07
1.73116e-08
-4.85587e-07
-9.63755e-08
6.15249e-07
-5.18874e-07
2.02999e-07
-5.59874e-07
-1.2763e-08
-6.26724e-07
6.46875e-07
-4.80005e-08
-5.98875e-07
-1.33744e-08
6.6025e-07
7.25234e-07
-3.8203e-07
-3.43204e-07
3.00999e-07
4.75497e-07
6.27375e-07
-6.10125e-07
-1.725e-08
-7.45161e-07
3.07274e-07
4.37887e-07
-5.60248e-07
5.60248e-07
-6.8875e-07
3.43251e-07
3.45499e-07
-6.66123e-07
2.60875e-07
-6.1455e-07
7.14585e-07
-1.00036e-07
-3.54618e-08
-4.68889e-07
5.0435e-07
1.435e-07
4.97e-07
-6.405e-07
-3.72874e-07
5.08249e-07
2.8929e-07
-7.34661e-07
1.55875e-07
-7.18751e-07
5.43124e-07
-7.18625e-07
1.755e-07
-8.18003e-07
1.83752e-07
-3.94324e-07
7.12674e-07
-3.1835e-07
6.26874e-07
-6.255e-07
-1.37397e-09
-3.97499e-07
7.82495e-07
-3.84996e-07
-3.75962e-07
-4.56263e-07
3.0585e-07
5.77474e-07
-1.29986e-07
-4.47488e-07
-6.30125e-07
5.81249e-08
7.20051e-07
-7.20051e-07
-1.52375e-07
-4.64125e-07
6.165e-07
-6.75e-07
3.83874e-07
2.91125e-07
1.70325e-07
-5.98325e-07
4.28e-07
3.54001e-07
3.44437e-07
-7.25026e-07
2.63651e-07
4.61375e-07
-3.40937e-07
-3.84089e-07
-1.0575e-07
-4.705e-07
5.7625e-07
-2.23161e-07
5.90422e-07
-3.67261e-07
-1.66249e-07
-3.5225e-07
5.18499e-07
-3.87238e-07
6.65825e-07
-2.78588e-07
5.01375e-07
2.29e-07
-7.30375e-07
6.0725e-07
-1.28625e-07
-4.78625e-07
2.9675e-07
-5.2675e-07
6.10813e-07
1.90487e-07
-8.013e-07
5.63753e-08
-5.10875e-07
4.545e-07
-8.15243e-09
-4.37704e-07
4.45856e-07
6.43125e-07
-1.54375e-07
6.422e-07
-1.60013e-07
-4.82188e-07
-1.46513e-07
-4.27713e-07
5.74225e-07
-5.71248e-07
-9.81239e-08
6.44713e-07
-1.76437e-07
3.44563e-07
-6.1885e-07
2.74288e-07
1.40313e-07
4.42224e-07
-5.82537e-07
5.80687e-07
-4.40374e-07
-2.91134e-07
5.43651e-07
7.22833e-07
-2.37491e-07
-4.85341e-07
-4.53875e-07
-3.46385e-07
-3.56399e-07
3.05623e-07
-7.03122e-07
-6.52813e-07
2.95875e-07
-6.05373e-07
5.59247e-07
4.61253e-08
-4.3295e-07
-2.19862e-07
1.659e-07
4.31413e-07
6.30425e-07
-4.64525e-07
1.38875e-07
4.68375e-07
8.15997e-07
-2.72748e-07
1.7485e-07
3.95913e-07
-8.33725e-08
-3.55879e-07
4.39251e-07
8.16699e-07
-6.04657e-07
-2.12042e-07
-6.23e-07
-1.3e-07
-5.03748e-07
5.53622e-07
-4.98739e-08
5.25999e-07
-2.75624e-07
-5.99621e-07
4.75493e-07
8.52498e-08
5.6075e-07
-1.76124e-07
6.09249e-07
-4.33125e-07
-2.23375e-07
-2.55e-07
4.78375e-07
-5.41105e-07
7.4663e-07
-2.05525e-07
-6.79138e-07
2.615e-07
-6.15003e-07
1.13126e-07
5.01878e-07
2.40624e-07
-5.59124e-07
-3.53099e-07
-2.955e-07
6.48599e-07
-2.46377e-08
4.49863e-07
-5.98751e-07
6.50752e-07
-5.20014e-08
-5.7225e-07
6.44125e-07
-7.1875e-08
-5.10113e-07
3.64875e-07
-5.8825e-07
5.92614e-07
4.72606e-08
-6.39875e-07
-2.48683e-07
-4.68415e-07
-3.71125e-07
-2.3175e-07
6.02875e-07
5.35663e-07
-5.81225e-07
7.88737e-07
-2.25612e-07
-5.63125e-07
3.198e-07
-5.55887e-07
2.36086e-07
-2.41997e-07
6.53871e-07
-7.5137e-07
5.09373e-07
-2.54752e-07
-3.60252e-07
2.73249e-07
2.45262e-07
-5.18512e-07
1.16221e-08
-5.18872e-07
-6.08122e-07
7.55698e-07
-1.47576e-07
5.80124e-07
-5.80003e-08
-5.22124e-07
-7.785e-07
7.57876e-07
2.06238e-08
-3.89825e-07
6.92913e-07
-3.03088e-07
6.00501e-07
-5.12e-07
-8.85002e-08
-4.24641e-08
-4.98641e-07
-4.66e-07
3.5375e-07
-5.1175e-07
6.4075e-07
-1.29e-07
1.86499e-07
-6.98249e-07
-5.03427e-07
-4.85611e-08
5.51988e-07
8.17998e-07
-6.06973e-07
-2.11025e-07
5.23499e-07
2.945e-07
2.99e-07
-5.43262e-07
2.44262e-07
1.32876e-07
-4.82875e-07
3.5e-07
-6.58213e-07
2.29627e-08
6.3525e-07
-3.5975e-07
6.07749e-07
-2.47999e-07
2.50125e-07
-6.09875e-07
3.16538e-07
-6.513e-07
3.34762e-07
3.54124e-07
-4.50499e-07
5.38626e-07
2.63737e-08
-5.65e-07
6.04368e-07
-5.2016e-07
-8.42084e-08
-4.36875e-07
-1.5e-07
5.86874e-07
-7.53749e-07
3.16874e-07
4.9978e-09
-4.75376e-07
4.70378e-07
6.54123e-07
-2.32496e-08
-6.30873e-07
6.34748e-07
1.93753e-08
-1.64112e-07
-4.49562e-07
3.57374e-07
3.0225e-07
-6.59624e-07
5.809e-07
-2.19213e-07
6.6662e-07
-2.60125e-07
-1.375e-07
5.39375e-07
2.97124e-07
4.58125e-07
4.27874e-07
-6.80125e-07
6.13751e-08
6.1875e-07
6.01511e-07
-6.05511e-07
-5.56244e-08
-5.65e-07
6.20625e-07
-7.81627e-08
-5.8005e-07
1.15051e-07
5.01124e-07
-6.16175e-07
-5.62374e-07
6.77424e-07
5.85624e-07
-3.87875e-07
-1.97749e-07
4.095e-07
1.76124e-07
5.04625e-07
7.25003e-09
-5.11875e-07
5.77368e-07
1.47866e-07
5.49251e-07
-6.39375e-07
9.01245e-08
-5.99124e-07
4.32875e-07
1.52662e-07
-6.79787e-07
-1.72124e-07
-5.20746e-07
6.485e-07
-7.58754e-08
-6.16874e-07
6.46624e-07
-2.97496e-08
5.55499e-07
-3.98499e-07
-1.57e-07
5.85625e-07
2.03112e-07
7.45116e-07
-3.78466e-07
-3.6665e-07
-4.18125e-07
7.54375e-07
-3.3625e-07
5.81497e-07
-5.08499e-07
-7.2998e-08
3.16874e-07
3.49747e-07
-2.41875e-07
-4.21374e-07
6.63249e-07
4.37502e-08
-5.31124e-07
-5.23296e-07
7.92983e-07
-2.69687e-07
-5.74923e-07
-6.72999e-07
3.34249e-07
3.3875e-07
2.52375e-07
-7.2425e-07
4.71875e-07
1.72538e-07
4.31088e-07
-6.03626e-07
-1.07238e-07
-5.48637e-07
-6.61374e-07
2.24749e-07
4.36625e-07
7.57501e-08
-4.26375e-07
-1.77349e-07
4.9715e-07
-6.08248e-07
7.11873e-07
-1.03625e-07
5.95584e-07
-5.557e-07
7.15875e-07
-3.095e-07
-4.06375e-07
-1.73251e-07
-3.885e-07
5.61751e-07
4.41998e-07
1.61373e-07
-6.38325e-07
5.39851e-07
9.84749e-08
3.85126e-07
-6.13e-07
2.27875e-07
5.72875e-07
1.36269e-08
3.91249e-07
-4.04876e-07
-5.38497e-07
5.52124e-07
-5.27322e-07
4.4395e-07
8.93362e-07
-3.33188e-07
-5.60175e-07
-5.76827e-07
6.01001e-07
-2.41745e-08
6.322e-07
-3.5895e-07
-5.93926e-07
-3.68732e-08
6.30799e-07
4.72148e-07
-5.98986e-07
6.16125e-07
1.07e-07
2.06287e-07
-5.93525e-07
4.80794e-07
1.92154e-07
3.41125e-07
-6.84749e-07
3.43625e-07
5.57488e-07
3.35875e-07
-4.46725e-07
-2.507e-07
6.97425e-07
2.96458e-07
-7.43183e-07
6.71244e-07
-3.70246e-07
-5.75624e-08
-5.5056e-07
2.13875e-07
4.95849e-07
8.16249e-08
5.66875e-07
-1.845e-07
-3.82375e-07
-2.115e-07
4.7225e-07
4.10938e-07
5.75125e-08
-4.6845e-07
-2.72875e-07
3.89751e-07
3.2e-07
4.17126e-07
-5.94193e-07
-1.94162e-07
5.36607e-07
-9.82129e-08
-4.38394e-07
6.355e-07
-4.8775e-07
-1.4775e-07
-6.96247e-07
2.30126e-07
-5.97002e-07
3.73377e-07
2.23625e-07
-5.06624e-07
-5.14984e-08
5.79875e-07
-2.43751e-08
2.2475e-07
2.80375e-07
-5.05125e-07
-6.3937e-07
6.3937e-07
-1.9715e-07
5.72762e-07
-5.23675e-07
-1.8765e-07
8.6251e-07
-5.62846e-07
-2.99665e-07
7.0827e-07
1.54241e-07
-4.26748e-08
-3.89375e-07
-2.71999e-07
3.77627e-07
1.65875e-07
-5.43502e-07
5.84626e-07
-3.53749e-08
-5.59925e-07
5.6245e-07
-2.52511e-09
3.52627e-08
-5.95188e-07
5.64373e-07
-7.43624e-07
1.79251e-07
-8.79627e-08
-5.42676e-07
4.40251e-07
-6.26241e-08
-4.4525e-08
-5.49401e-07
1.28752e-08
6.14499e-07
4.1925e-07
-3.62875e-07
3.74163e-07
2.4215e-07
-6.16313e-07
7.43874e-07
-4.185e-07
6.76e-07
-4.48875e-07
-2.27125e-07
2.78632e-07
5.38067e-07
-2.22001e-07
-4.50999e-07
7.09238e-07
-4.94512e-07
-2.14725e-07
1.9645e-07
-4.53075e-07
-6.14753e-07
4.96878e-07
1.17875e-07
6.16237e-07
1.76746e-07
8.25e-08
4.51125e-07
-5.33625e-07
6.62874e-07
-2.88622e-07
-3.74252e-07
1.27753e-07
-5.04378e-07
3.76625e-07
1.94187e-07
3.67563e-07
-5.6175e-07
5.85475e-07
-3.91288e-07
6.25e-08
6.07623e-07
-6.70123e-07
-6.65625e-07
1.25e-07
5.33775e-07
1.20825e-07
-4.33e-07
-2.36999e-07
5.2135e-07
-3.51025e-07
6.39123e-07
-4.19999e-07
-2.19124e-07
7.25128e-07
-4.28502e-07
-9.43752e-08
5.22878e-07
-6.74375e-07
6.61e-07
6.8274e-07
-8.30625e-08
-5.29099e-07
6.871e-07
-1.58e-07
-5.57887e-07
3.93775e-07
7.33716e-07
-5.07094e-07
-2.26622e-07
5.76504e-07
1.57212e-07
7.03125e-07
-5.1425e-07
-1.88875e-07
2.07375e-07
4.9575e-07
-6.50617e-07
6.50617e-07
5.50125e-07
-1.82249e-07
-5.5098e-07
-2.27399e-07
7.78379e-07
6.78511e-07
-4.33249e-07
-4.9575e-07
-1.37938e-07
-7.78188e-07
2.13425e-07
5.64763e-07
6.42488e-07
-2.87457e-10
-4.19948e-07
4.11796e-07
-4.09625e-07
5.5525e-07
-5.51624e-07
-2.76258e-08
3.74125e-07
3.26837e-07
-7.00962e-07
1.39374e-07
-6.18624e-07
1.88213e-07
3.45562e-07
-3.54788e-07
5.43e-07
4.4925e-07
-4.44252e-07
-2.25837e-07
5.95587e-07
1.16625e-07
-5.45128e-07
7.16251e-07
-2.20377e-07
-4.95874e-07
-6.60625e-07
7.42496e-08
5.86376e-07
-9.83742e-08
-5.62251e-07
-3.13e-07
4.8425e-07
-1.7125e-07
2.89624e-07
3.82875e-07
-6.72499e-07
7.31625e-07
-4.42e-07
3.08252e-07
3.34126e-07
-6.42379e-07
1.00207e-09
-5.36248e-07
5.35246e-07
7.28875e-07
-1.8175e-07
-5.47125e-07
-4.01251e-08
7.69e-07
7.3365e-07
-1.87211e-07
-5.46438e-07
-3.86532e-07
4.67501e-07
-3.34625e-07
-5.976e-07
3.47545e-08
-1.39999e-08
-5.0575e-07
6.81875e-07
-5.94375e-07
-8.75e-08
-5.16037e-07
6.01587e-07
-8.55499e-08
-5.60624e-07
-5.62504e-08
-8.11292e-08
4.3113e-07
-3.50001e-07
4.08875e-07
-4.71e-07
6.09874e-07
-6.79624e-07
6.97497e-08
7.19124e-07
-1.0925e-07
4.11874e-07
2.23626e-07
-6.16624e-07
4.94499e-07
5.8775e-07
1.21475e-07
-7.09225e-07
-5.77e-07
5.0375e-07
7.32496e-08
7.75286e-07
-2.80549e-07
-4.94737e-07
4.02412e-07
6.30868e-07
-1.89748e-07
-4.4112e-07
-5.85623e-07
6.12683e-09
5.79496e-07
-4.9175e-07
4.11e-07
3.935e-07
1.11125e-07
5.64875e-07
8.53782e-08
4.26124e-07
-5.11502e-07
6.65185e-07
-5.12283e-07
-1.52901e-07
-6.79373e-07
4.06373e-07
2.73e-07
-2.41125e-07
6.43375e-07
-4.0225e-07
-3.14813e-07
-3.15887e-07
6.307e-07
-3.82325e-07
6.14163e-07
-2.31837e-07
-5.3055e-07
-3.12878e-08
5.61838e-07
-4.45624e-07
-2.98375e-07
-7.10121e-07
2.77623e-07
4.32498e-07
4.45912e-07
1.99e-07
-6.44912e-07
-3.30713e-07
-4.59275e-07
7.89988e-07
3.16137e-07
-5.97624e-07
2.81487e-07
-4.45122e-07
7.87998e-07
-3.42875e-07
-5.80875e-07
5.79248e-07
5.8525e-07
-4.54124e-07
-1.31125e-07
-7.43248e-07
9.34995e-08
-4.96875e-07
-2.81625e-07
-4.0575e-07
5.0625e-07
-6.0775e-07
6.0775e-07
2.97496e-08
-6.37998e-07
-1.54999e-07
-4.45374e-07
6.00373e-07
4.79749e-07
6.0025e-07
-3.755e-07
2.79751e-07
2.60375e-07
-5.40126e-07
6.06375e-07
-3.26624e-07
6.6705e-07
-3.36463e-07
-7.84664e-07
5.40076e-07
2.44588e-07
2.12001e-07
-6.43502e-07
4.31501e-07
-6.92164e-07
2.81337e-07
4.10826e-07
-5.8235e-07
7.25387e-07
-1.43037e-07
-2.00373e-07
-3.06e-07
3.302e-07
3.56075e-07
-6.86275e-07
5.96995e-07
-6.60622e-07
6.36267e-08
-2.26475e-07
7.07387e-07
-6.7225e-07
-1.65005e-08
-5.31877e-07
-2.28501e-07
-5.72625e-07
7.03751e-07
-2.39749e-07
-4.64002e-07
7.50005e-08
4.02125e-07
-4.97063e-07
-1.41263e-07
-1.57374e-07
5.40123e-07
-3.82749e-07
5.76628e-08
-5.737e-07
-2.54775e-07
6.01538e-07
-3.46763e-07
3.51234e-07
1.88636e-07
-5.39869e-07
5.80373e-07
5.87502e-08
6.88875e-07
-5.425e-08
-6.03588e-07
4.9935e-07
1.04238e-07
-4.73039e-07
-2.51487e-07
-4.27502e-08
-4.04874e-07
4.47624e-07
-3.39124e-07
-1.64624e-07
-2.75005e-08
-4.42749e-07
4.7025e-07
-2.34152e-08
4.13987e-07
-3.90572e-07
5.64619e-07
-5.88035e-07
-5.32125e-07
4.1425e-07
-5.92875e-07
2.2175e-07
5.65275e-07
-2.20712e-07
-5.42625e-07
-2.29375e-07
7.72e-07
1.56124e-07
-5.89124e-07
-6.70002e-07
-5.55163e-07
1.8325e-07
-4.9625e-07
-6.2575e-07
-6.98745e-08
5.29497e-07
-7.02747e-07
1.7325e-07
-1.01628e-08
5.5015e-07
-5.39988e-07
2.84746e-07
-6.29245e-07
3.44499e-07
-1.92873e-07
6.59748e-07
-4.66875e-07
4.65374e-07
-6.58247e-07
5.64412e-07
-6.92275e-07
1.27863e-07
-2.3725e-07
5.91875e-07
-3.54624e-07
4.00249e-07
-6.37499e-07
-1.57227e-07
6.03139e-07
-5.53762e-07
1.06474e-07
4.97247e-07
-5.78376e-07
-5.25624e-07
2.78999e-07
2.46625e-07
-5.06613e-07
-2.78051e-07
3.51246e-08
4.24751e-07
-4.59876e-07
-3.05373e-07
5.80074e-07
-2.74702e-07
4.96378e-08
4.20475e-07
-4.70113e-07
-1.22112e-07
-5.69001e-07
-6.53999e-07
2.20375e-07
4.33625e-07
-1.58251e-07
5.67748e-07
1.70374e-07
4.22126e-07
-5.925e-07
7.06739e-07
-1.85661e-07
-4.353e-07
5.19175e-07
6.69623e-07
-3.17125e-07
-2.69749e-07
6.73249e-07
-4.035e-07
3.57625e-07
3.09e-07
-6.66625e-07
-4.7525e-07
-1.325e-07
-2.625e-07
5.925e-07
-3.3e-07
5.79876e-07
1.42249e-07
-7.22125e-07
-6.83299e-07
1.12349e-07
5.70949e-07
-1.91485e-07
6.00284e-07
-4.08799e-07
-4.60251e-07
-3.57752e-07
3.49826e-07
-6.44588e-07
2.94761e-07
-2.54e-07
-4.43622e-07
-4.3241e-07
7.20918e-07
8.11275e-08
4.05623e-07
-4.8675e-07
9.41254e-08
4.95875e-07
5.3275e-07
-4.5025e-07
6.58709e-07
-2.06412e-07
-4.52297e-07
7.35359e-07
-7.66497e-08
5.09988e-07
2.14112e-07
-2.6e-07
5.67e-07
-3.07e-07
5.34751e-07
-6.19875e-07
8.51246e-08
9.43752e-08
4.40376e-07
-5.055e-07
5.29125e-07
3.16499e-07
-4.15126e-07
-1.99627e-07
6.8625e-07
-2.03125e-07
-4.83125e-07
-3.13875e-07
-1.6935e-07
4.83226e-07
3.385e-07
2.965e-07
-6.35e-07
1.79775e-07
-4.9365e-07
-1.73675e-07
5.565e-07
-7.67288e-07
5.47638e-07
2.1965e-07
-2.82001e-07
-3.15001e-07
9.26867e-08
-6.69513e-07
6.99735e-07
-1.07121e-07
3.42795e-07
3.5694e-07
-4.36373e-07
-2.43e-07
-3.32075e-07
6.56615e-07
-3.24539e-07
6.40137e-07
8.98749e-08
-7.30012e-07
-4.77373e-07
4.78375e-07
-2.43113e-07
-4.49051e-07
6.08314e-07
9.50125e-08
-7.03327e-07
6.8725e-07
-2.24125e-07
-3.7499e-08
4.67499e-07
-4.3e-07
-5.30498e-07
4.92999e-07
-2.37001e-07
7.90623e-07
-6.25124e-07
1.79125e-07
4.45999e-07
2.74875e-07
-6.27124e-07
3.52249e-07
5.28125e-07
-4.50027e-09
-5.23625e-07
-2.8345e-07
-3.85725e-07
6.69174e-07
5.05177e-07
-3.36259e-08
-4.71551e-07
-4.275e-07
3.71875e-07
4.64625e-07
2.31253e-08
7.04425e-07
-1.58504e-08
-6.88575e-07
-2.74997e-07
6.94242e-07
-4.19245e-07
-7.1385e-07
1.833e-07
-5.34125e-07
2.93e-07
6.73128e-07
-6.05129e-07
-6.79994e-08
-5.08749e-07
4.65999e-07
4.56251e-07
-6.46249e-07
1.89998e-07
-6.71188e-07
2.88862e-07
6.03e-07
-2.94748e-07
-1.85373e-07
-4.52624e-07
6.37998e-07
3.5075e-07
1.86875e-07
-5.37625e-07
-5.82495e-08
6.28001e-07
6.08247e-07
9.93752e-08
1.48662e-07
5.73449e-07
-7.22111e-07
2.355e-07
-4.90275e-07
-5.69375e-07
1.99997e-08
5.49375e-07
-6.4875e-07
7.93753e-08
-6.30998e-07
6.96748e-07
-6.57498e-08
3.979e-07
1.75638e-07
-5.73538e-07
-6.10001e-07
5.44251e-07
6.57502e-08
1.9225e-07
4.50875e-07
4.30125e-07
-6.42375e-07
2.1225e-07
3.44001e-07
3.29127e-07
-5.6175e-07
-1.99125e-07
-5.59172e-07
6.60831e-07
-1.01659e-07
2.26812e-07
3.60937e-07
-5.33749e-08
5.94125e-07
5.82622e-07
-1.15001e-07
-4.67621e-07
-2.73201e-07
-3.09099e-07
2.9325e-07
-5.90088e-07
2.96838e-07
-9.54996e-08
-3.33125e-07
7.835e-07
-4.50375e-07
4.42563e-07
-6.47625e-07
2.05062e-07
3.5575e-07
-7.08e-07
5.86124e-07
-2.30374e-07
5.50251e-07
-1.1625e-08
-5.10749e-07
5.96127e-07
-6.901e-07
3.89637e-07
3.00462e-07
-5.8575e-07
5.5825e-07
7.08243e-07
-7.08243e-07
-5.13875e-07
-4.23751e-08
5.5625e-07
-3.87624e-07
6.79e-07
-2.91376e-07
-3.68126e-07
6.83625e-07
6.49747e-07
-3.14001e-07
-3.35746e-07
4.33166e-07
3.1195e-07
-2.96499e-07
6.1425e-07
-3.1775e-07
6.50125e-07
-3.98125e-07
-2.52e-07
-2.18753e-07
-3.40624e-07
5.59377e-07
3.44526e-07
2.80474e-07
-1.02875e-07
5.54e-07
-2.51126e-07
-4.26375e-07
5.20997e-07
-4.58497e-07
-1.07e-07
-5.63623e-07
-1.45375e-07
2.80433e-07
4.39618e-07
-2.0498e-08
-5.78253e-07
6.01937e-07
-3.20747e-08
2.27808e-07
3.74129e-07
-6.51122e-07
3.91122e-07
6.91249e-08
-4.8475e-07
4.15625e-07
4.94527e-07
2.96879e-08
4.0375e-07
-6.86124e-07
-2.24e-07
6.2775e-07
5.67626e-07
9.14374e-08
4.61925e-07
-5.53362e-07
-4.83824e-07
5.75261e-07
6.16184e-07
-5.62649e-07
-5.35351e-08
5.13625e-07
2.13125e-07
-7.1275e-07
-3.30002e-08
-3.53699e-07
-3.50417e-07
4.82088e-07
-4.91125e-07
9.0372e-09
-6.57625e-07
5.29625e-07
-1.32375e-07
5.32624e-07
5.48625e-07
-2.32495e-08
-5.25375e-07
-3.67637e-07
-3.9965e-07
-7.195e-07
2.7675e-07
-6.22e-07
1.42875e-07
4.79125e-07
-6.37375e-07
1.5375e-08
6.31749e-07
1.22481e-08
-5.51875e-07
2.6425e-07
2.87624e-07
-6.85498e-07
4.60001e-08
6.39498e-07
-5.66325e-07
1.50667e-07
4.15659e-07
-3.44376e-07
-3.68124e-07
7.125e-07
-3.03938e-07
-4.7425e-07
3.15624e-07
3.20499e-07
-3.80872e-08
4.86299e-07
-4.48212e-07
5.47962e-07
-5.8605e-07
-6.225e-07
1.40125e-07
4.82375e-07
-4.77251e-07
6.43127e-07
-5.03391e-07
-1.86536e-07
6.89927e-07
-5.45499e-07
1.2525e-07
4.20249e-07
-7.0892e-07
3.21262e-08
6.76793e-07
-1.84287e-07
-5.24633e-07
-3.75001e-07
-1.47874e-07
5.22874e-07
-3.9995e-07
7.51184e-07
4.64913e-07
2.25375e-07
-6.90288e-07
6.21376e-07
-6.03626e-07
-1.77504e-08
5.68873e-07
-5.39124e-07
-6.72499e-08
6.36123e-07
6.33876e-07
-5.96252e-07
-3.405e-07
-4.51374e-07
7.91874e-07
1.96125e-07
-4.92624e-07
-4.1376e-08
5.15875e-07
-4.25625e-07
2.7325e-07
-6.05037e-07
5.52313e-07
1.0665e-07
-6.58963e-07
-7.2617e-07
5.40299e-07
-2.10858e-07
-5.15312e-07
5.77251e-07
-1.93125e-07
1.1835e-07
3.48338e-07
-4.66688e-07
2.52749e-07
4.51002e-07
-1.86463e-07
-3.36037e-07
-5.44776e-07
3.58313e-07
4.4825e-07
1.5225e-07
-5.28501e-07
3.37499e-07
-1.17375e-07
5.4825e-07