/*--------------------------------*- C++ -*----------------------------------*\
  =========                 |
  \\      /  F ield         | OpenFOAM: The Open Source CFD Toolbox
   \\    /   O peration     | Website:  https://openfoam.org
    \\  /    A nd           | Version:  7
     \\/     M anipulation  |
\*---------------------------------------------------------------------------*/
FoamFile
{
    version     2.0;
    format      ascii;
    class       volVectorField;
    location    "7";
    object      U;
}
// * * * * * * * * * * * * * * * * * * * * * * * * * * * * * * * * * * * * * //

dimensions      [0 1 -1 0 0 0 0];

internalField   nonuniform List<vector> 
13182
(
(0.5 5.4584e-08 3.49653e-23)
(0.499999 -7.06563e-07 0)
(0.499998 2.19494e-06 1.18792e-22)
(0.5 1.03798e-07 -2.72992e-22)
(0.500001 -1.27193e-06 1.29735e-23)
(0.499999 -4.84094e-08 1.35399e-22)
(0.499999 -3.07586e-07 2.60838e-22)
(0.5 -1.21654e-07 -3.03399e-22)
(0.5 9.17702e-08 -1.57715e-22)
(0.499991 8.26513e-07 1.4402e-22)
(0.499992 4.60855e-08 0)
(0.500001 -1.44701e-07 -1.0016e-24)
(0.5 2.31395e-07 -1.57657e-23)
(0.499999 2.37584e-07 -2.9954e-22)
(0.499999 -2.48988e-07 0)
(0.500001 -1.74692e-07 1.33963e-22)
(0.5 1.673e-07 -7.61059e-23)
(0.5 -3.59074e-07 0)
(0.499999 -2.80158e-07 -2.61391e-22)
(0.499998 -5.09279e-07 0)
(0.499999 2.01801e-06 -1.17177e-22)
(0.499999 -1.79529e-07 0)
(0.5 2.69895e-07 8.38406e-24)
(0.499998 7.16739e-07 4.85484e-22)
(0.5 -5.55702e-07 2.87429e-23)
(0.499998 -1.09578e-06 0)
(0.5 -5.17808e-07 0)
(0.499999 8.82387e-07 0)
(0.499996 2.71503e-07 4.59648e-23)
(0.5 -3.59594e-07 -4.85053e-22)
(0.5 -4.12165e-07 0)
(0.5 5.3359e-08 2.86061e-22)
(0.500001 -2.52102e-07 -6.42666e-23)
(0.499997 -1.07723e-06 6.66075e-23)
(0.499998 -2.83101e-06 -1.86695e-22)
(0.499999 -1.62577e-06 0)
(0.5 -8.08967e-08 0)
(0.499997 1.35416e-06 -2.01068e-22)
(0.499996 8.12793e-07 0)
(0.5 4.26078e-07 -1.41739e-22)
(0.5 -2.59954e-06 -4.17932e-24)
(0.499993 3.33095e-06 3.22115e-23)
(0.499996 -1.96348e-07 1.17048e-22)
(0.499995 -1.03779e-06 -3.50774e-23)
(0.499998 -4.915e-07 -1.70677e-23)
(0.499999 -2.85449e-06 0)
(0.5 2.73157e-07 3.28646e-22)
(0.499994 1.70497e-06 0)
(0.499997 1.02994e-06 8.98856e-23)
(0.5 5.73947e-10 0)
(0.499999 1.08494e-06 0)
(0.499999 1.63712e-06 0)
(0.499999 4.35852e-07 7.17214e-23)
(0.5 -1.04389e-07 1.14366e-22)
(0.5 3.966e-07 0)
(0.5 -1.82204e-07 0)
(0.500001 1.52744e-07 0)
(0.5 1.39628e-07 -1.15569e-22)
(0.500001 4.32613e-07 -1.36304e-22)
(0.5 -4.44884e-07 0)
(0.5 -3.91476e-08 0)
(0.5 -6.55634e-08 3.15348e-22)
(0.5 1.24326e-07 -1.30097e-22)
(0.499999 1.58837e-06 2.26714e-22)
(0.499998 -1.15407e-06 2.58732e-22)
(0.499998 -1.39133e-06 -4.69494e-22)
(0.500001 7.2518e-07 -1.29501e-22)
(0.5 -8.18895e-07 6.11377e-23)
(0.5 5.81784e-07 -2.67492e-23)
(0.500001 -4.27264e-07 -1.26139e-22)
(0.499999 1.23581e-06 -6.58589e-24)
(0.499999 -7.0309e-08 -7.92388e-23)
(0.499999 -3.40786e-07 1.66273e-22)
(0.499999 -2.3724e-06 0)
(0.499998 -1.48985e-06 4.70453e-23)
(0.5 -1.61793e-07 3.15392e-22)
(0.5 -2.38605e-07 0)
(0.5 -1.50614e-07 8.58542e-23)
(0.5 7.89386e-08 3.21431e-22)
(0.499999 5.52704e-07 -5.63238e-22)
(0.5 -1.79144e-07 -7.84843e-23)
(0.499999 -1.54216e-06 1.37104e-22)
(0.499999 -2.26908e-07 7.36039e-23)
(0.499999 4.57749e-07 -6.69824e-23)
(0.499998 1.16936e-07 -5.59568e-23)
(0.499996 -3.34944e-07 0)
(0.499995 4.14232e-07 0)
(0.500001 1.43825e-06 -1.40504e-22)
(0.5 -5.88302e-07 0)
(0.500001 -6.03782e-07 -1.1931e-22)
(0.5 1.11283e-06 0)
(0.5 -3.06898e-07 -1.69799e-22)
(0.499999 -2.58666e-07 6.88642e-23)
(0.500003 2.34891e-06 1.55737e-22)
(0.5 -7.43748e-07 -2.90322e-22)
(0.5 1.98806e-08 0)
(0.499998 2.02911e-06 1.10484e-22)
(0.500001 2.73557e-09 7.31077e-23)
(0.5 -3.51636e-07 0)
(0.5 -5.87126e-07 0)
(0.499998 -5.57056e-07 -7.83398e-23)
(0.499997 1.42284e-06 0)
(0.499998 -2.38915e-07 0)
(0.499999 -1.83921e-07 -2.61758e-22)
(0.499999 -4.32877e-07 -1.50299e-22)
(0.5 -4.16312e-07 -1.18209e-22)
(0.499997 -4.97036e-07 -5.61101e-23)
(0.49999 2.17058e-06 -5.68337e-23)
(0.5 -1.98803e-07 -3.94878e-22)
(0.499997 -1.28468e-06 0)
(0.499999 -3.69155e-07 3.5467e-22)
(0.499996 -8.61232e-07 7.335e-23)
(0.499992 -5.56821e-07 -1.7802e-22)
(0.499999 -6.27676e-08 -1.55019e-24)
(0.499999 5.3806e-07 1.0834e-22)
(0.499997 6.20289e-08 -1.89959e-22)
(0.5 -2.38754e-07 1.98419e-22)
(0.499998 4.06133e-06 3.93832e-23)
(0.499999 1.35819e-06 1.91761e-22)
(0.5 1.21328e-06 8.74799e-25)
(0.5 5.2933e-07 0)
(0.499995 -2.7421e-07 -1.37632e-22)
(0.5 -2.57762e-07 0)
(0.499999 -1.44492e-08 -2.67622e-22)
(0.499998 3.97308e-08 -1.11425e-22)
(0.499998 3.89299e-07 0)
(0.5 2.48396e-07 -1.29753e-22)
(0.5 3.35102e-08 7.2685e-23)
(0.499999 2.21402e-09 -2.97263e-22)
(0.500001 1.78437e-06 0)
(0.499997 2.83508e-07 3.73304e-23)
(0.499999 -2.44682e-08 0)
(0.5 6.65058e-08 0)
(0.499997 5.67237e-07 -8.36018e-23)
(0.499999 2.09076e-07 -4.0313e-22)
(0.5 2.55138e-08 2.72435e-22)
(0.5 6.78875e-08 2.11146e-23)
(0.5 -1.6709e-07 -6.60569e-23)
(0.499999 1.45745e-09 0)
(0.499999 -5.40747e-07 4.97555e-22)
(0.499998 -2.14428e-06 2.31568e-22)
(0.499992 -3.61198e-06 0)
(0.499995 2.80841e-06 5.69028e-23)
(0.499997 5.26065e-07 0)
(0.499996 1.23281e-06 1.31267e-22)
(0.5 -1.83495e-08 -6.08469e-25)
(0.499998 -6.56038e-07 0)
(0.500001 1.03203e-06 0)
(0.5 -2.83764e-07 -1.58963e-22)
(0.499998 2.05876e-06 0)
(0.499999 2.5351e-06 -3.21877e-23)
(0.499998 -1.35168e-06 1.06291e-22)
(0.5 -1.04418e-06 0)
(0.499998 -5.84334e-07 9.17683e-23)
(0.500002 3.87026e-07 1.99051e-22)
(0.500001 3.72095e-07 2.25657e-22)
(0.499996 6.45808e-07 0)
(0.500001 -3.66756e-06 4.53209e-26)
(0.499998 -1.6681e-06 -3.10712e-23)
(0.499998 -2.87362e-07 0)
(0.499998 -7.71897e-08 -1.20217e-22)
(0.499997 1.20777e-06 -1.98027e-22)
(0.5 1.31208e-06 8.79208e-23)
(0.5 -2.50228e-07 -3.03864e-22)
(0.499999 -1.05863e-08 -5.64131e-25)
(0.5 -1.76796e-07 6.6921e-25)
(0.5 -2.92278e-07 1.6977e-22)
(0.499998 -1.83497e-06 -2.46818e-22)
(0.499998 -7.98189e-07 5.58994e-23)
(0.499999 1.09984e-06 0)
(0.499995 3.4343e-07 0)
(0.499998 7.61057e-07 -1.49676e-22)
(0.499999 5.37744e-07 0)
(0.499998 -1.36295e-06 -1.39849e-23)
(0.500002 -1.16975e-06 9.54239e-23)
(0.500001 2.19399e-07 2.63421e-22)
(0.499997 2.68106e-06 0)
(0.499997 8.37115e-07 -9.54276e-23)
(0.499999 9.85842e-08 0)
(0.499999 -3.44561e-07 0)
(0.5 -6.13937e-07 -1.16024e-22)
(0.499994 1.52364e-06 -9.92568e-23)
(0.5 -2.19357e-07 0)
(0.499999 -3.72443e-08 4.07933e-22)
(0.500002 -4.89532e-08 -6.59407e-23)
(0.499997 -9.70669e-07 -1.00515e-22)
(0.499996 4.08231e-07 1.94039e-22)
(0.5 -9.57672e-08 -2.90742e-22)
(0.500002 -3.04556e-07 1.68445e-22)
(0.499999 5.98434e-08 1.22665e-22)
(0.500002 -4.30877e-07 -8.21168e-23)
(0.5 -2.56237e-07 4.59932e-27)
(0.500002 -7.95856e-09 -8.00673e-23)
(0.500001 -2.78008e-08 0)
(0.5 -2.808e-07 3.3112e-22)
(0.500002 1.06911e-06 9.8456e-23)
(0.499997 1.0317e-06 1.85115e-22)
(0.500001 4.92067e-07 6.37882e-23)
(0.499999 3.71173e-07 2.25508e-22)
(0.500001 -6.05307e-07 6.22327e-23)
(0.5 5.55165e-07 -2.79181e-22)
(0.499999 2.5291e-07 4.54795e-22)
(0.5 1.18403e-06 1.59536e-23)
(0.5 -1.86617e-07 0)
(0.499997 -7.044e-07 -1.25386e-24)
(0.500003 -1.52632e-06 4.82083e-23)
(0.499999 -1.73529e-06 -6.11779e-23)
(0.499993 1.35299e-06 0)
(0.5 -1.17871e-07 1.95784e-22)
(0.499999 -1.31464e-06 -7.40988e-23)
(0.499998 7.66605e-07 0)
(0.499992 -1.80457e-07 0)
(0.5 2.81219e-07 -2.78132e-22)
(0.500001 -5.11045e-08 3.38104e-22)
(0.499998 -2.6319e-07 0)
(0.5 2.35503e-07 0)
(0.499999 6.01597e-07 2.26264e-22)
(0.5 -1.47482e-07 -3.36889e-22)
(0.5 4.74077e-07 -2.34177e-22)
(0.5 -8.95242e-07 -1.07468e-23)
(0.499999 -1.23041e-06 0)
(0.499998 -5.70056e-07 0)
(0.5 -1.17891e-06 3.35308e-23)
(0.499999 4.44333e-07 7.38532e-23)
(0.499998 1.02894e-06 5.89586e-23)
(0.5 -2.79743e-08 -3.42828e-22)
(0.5 4.75971e-08 1.43649e-22)
(0.5 -4.7942e-07 0)
(0.5 -1.20949e-07 1.57008e-22)
(0.499999 -7.13789e-08 -5.54317e-22)
(0.5 -1.25703e-07 1.52363e-22)
(0.499999 -9.12688e-07 -1.49365e-22)
(0.499999 -5.27641e-07 1.48886e-22)
(0.499999 2.77059e-07 0)
(0.5 -4.85554e-07 -3.67802e-23)
(0.5 3.82062e-08 0)
(0.499996 1.6911e-06 -7.85152e-25)
(0.499999 -5.17953e-08 2.85737e-22)
(0.499999 -1.21777e-07 0)
(0.500001 -9.69202e-07 -1.13127e-24)
(0.499997 -7.05481e-07 7.70092e-23)
(0.499997 1.04791e-06 -4.04461e-23)
(0.5 2.18189e-07 -1.49275e-22)
(0.5 -4.94366e-08 1.24946e-22)
(0.5 2.09785e-07 -4.07153e-22)
(0.499999 -7.13841e-07 1.38936e-22)
(0.5 1.11128e-06 2.38059e-22)
(0.499998 2.77158e-07 -4.62362e-22)
(0.5 -6.29507e-10 -1.66831e-23)
(0.499999 -1.55661e-07 1.17119e-22)
(0.5 1.72829e-07 6.59385e-23)
(0.5 8.85231e-07 -1.27426e-22)
(0.5 5.37138e-07 3.2987e-22)
(0.5 9.2159e-08 -1.01361e-22)
(0.499998 -3.71357e-06 -4.75055e-23)
(0.5 -3.04942e-08 -1.39546e-22)
(0.499996 -3.50779e-07 -4.55643e-23)
(0.499993 -6.0493e-07 -3.11664e-23)
(0.499995 4.58132e-07 -6.75798e-24)
(0.499998 -1.2397e-07 -4.42845e-23)
(0.499998 -1.28333e-06 0)
(0.5 8.05932e-08 4.24655e-22)
(0.5 7.00361e-08 1.51016e-22)
(0.5 -1.17297e-07 0)
(0.500001 -1.05506e-06 -1.42007e-22)
(0.499998 7.36584e-07 1.01116e-22)
(0.500002 2.47574e-06 6.74188e-23)
(0.499999 7.64092e-08 0)
(0.5 -3.34206e-07 -2.43277e-22)
(0.5 -2.423e-07 -1.91107e-23)
(0.5 -9.24301e-08 -2.95589e-22)
(0.499999 7.92109e-08 -3.18313e-22)
(0.499999 3.83277e-07 2.89798e-22)
(0.499999 3.05648e-07 0)
(0.5 -2.89193e-07 0)
(0.499998 2.19576e-06 -1.81655e-22)
(0.499999 -5.09147e-08 3.00347e-22)
(0.5 -9.71945e-08 -4.24787e-22)
(0.499999 2.77292e-07 0)
(0.5 -2.74798e-07 0)
(0.5 -1.14069e-07 -3.21991e-22)
(0.500002 1.21277e-06 9.43096e-23)
(0.5 3.85546e-07 0)
(0.499999 4.34476e-07 1.86537e-22)
(0.5 3.49107e-07 -3.44653e-23)
(0.499999 -1.94149e-06 2.51201e-23)
(0.499998 1.36985e-06 1.77462e-22)
(0.5 -2.32069e-07 -3.05029e-22)
(0.499997 -2.53359e-06 6.24992e-23)
(0.5 -2.75624e-07 -1.71299e-22)
(0.5 4.30292e-07 8.26998e-23)
(0.499994 -5.2354e-07 -7.01832e-23)
(0.5 3.26407e-07 4.92468e-23)
(0.499998 -1.10428e-06 -6.52929e-23)
(0.5 -5.38828e-07 7.56295e-23)
(0.5 6.8008e-09 1.164e-22)
(0.5 -1.08361e-07 0)
(0.5 -1.57764e-07 0)
(0.5 1.65332e-07 -2.44449e-22)
(0.5 1.05104e-07 -8.24243e-23)
(0.500002 -4.03885e-07 1.12732e-22)
(0.5 1.45442e-06 3.39769e-22)
(0.5 3.63366e-07 1.4279e-22)
(0.5 3.85006e-07 7.52723e-23)
(0.499996 3.26442e-06 0)
(0.500005 4.01387e-07 -9.6522e-23)
(0.499999 -7.40926e-08 2.50459e-22)
(0.499999 -4.34137e-07 1.32938e-22)
(0.5 2.43592e-07 3.24674e-22)
(0.500002 6.51773e-07 9.73621e-26)
(0.5 3.01262e-07 0)
(0.5 -4.07856e-08 -1.45963e-22)
(0.5 2.56123e-07 -8.77489e-23)
(0.5 -4.8591e-07 3.0982e-22)
(0.5 -2.94542e-07 0)
(0.5 1.19636e-07 -3.49335e-22)
(0.5 -5.84659e-08 2.97206e-22)
(0.5 -4.69556e-07 0)
(0.5 -1.68144e-07 5.73414e-22)
(0.499998 -1.06662e-06 8.52383e-23)
(0.500001 -1.23252e-06 -1.38542e-22)
(0.500001 -3.54994e-07 5.21256e-23)
(0.499999 -5.18232e-07 2.94773e-22)
(0.5 7.72458e-08 -1.45326e-22)
(0.499999 -2.61527e-07 2.34902e-22)
(0.5 -1.79803e-08 -3.0259e-22)
(0.499999 -1.36629e-06 9.00467e-25)
(0.5 -3.89852e-07 0)
(0.5 2.34086e-06 0)
(0.499999 -4.82425e-07 -9.60025e-23)
(0.499998 -8.72372e-07 0)
(0.499998 -8.95155e-07 0)
(0.499998 6.35385e-07 0)
(0.499996 1.63299e-07 -1.65128e-22)
(0.499998 6.73584e-07 0)
(0.5 4.98238e-07 1.63547e-23)
(0.499999 -1.04052e-06 -2.49458e-22)
(0.500001 -1.34271e-07 -1.34378e-22)
(0.5 -1.86691e-07 0)
(0.499994 8.40895e-07 7.82218e-23)
(0.499998 2.47692e-06 2.14375e-23)
(0.5 2.57166e-07 0)
(0.5 9.79397e-08 -4.1276e-23)
(0.499997 -1.82384e-06 0)
(0.499995 1.61895e-06 1.43196e-22)
(0.5 -1.84364e-07 0)
(0.5 7.43439e-08 2.55061e-22)
(0.499999 2.12463e-07 0)
(0.5 5.57728e-07 -2.78904e-22)
(0.499997 -2.59571e-07 -2.68423e-22)
(0.499998 -5.41404e-07 2.52427e-22)
(0.5 -2.53073e-07 -4.54738e-22)
(0.5 1.50297e-06 4.961e-23)
(0.499999 -1.70287e-08 2.79031e-22)
(0.499999 -3.75191e-07 -4.00497e-22)
(0.5 -1.27357e-07 -1.33443e-22)
(0.5 3.31484e-07 -2.23306e-22)
(0.5 5.58475e-07 -2.32649e-22)
(0.5 1.10583e-08 -7.73349e-23)
(0.500001 -1.05432e-08 2.91611e-22)
(0.5 5.28637e-07 3.88574e-23)
(0.5 -2.68052e-07 0)
(0.499999 8.84324e-07 -4.97554e-23)
(0.499999 -1.37617e-07 8.24728e-23)
(0.5 -2.86951e-06 -1.27273e-22)
(0.499999 5.79764e-08 0)
(0.5 -3.58627e-07 2.02699e-22)
(0.499999 -3.58924e-07 3.1508e-22)
(0.5 -7.58502e-08 -3.88372e-27)
(0.499999 -7.42111e-07 0)
(0.5 -8.59449e-08 -1.53327e-22)
(0.5 -5.24877e-07 1.51118e-22)
(0.499999 9.45121e-07 -4.05057e-23)
(0.499998 -6.03812e-07 -5.21645e-23)
(0.5 3.03222e-07 -3.52036e-22)
(0.5 -1.91977e-07 1.16278e-22)
(0.500001 -3.3179e-07 -2.30415e-22)
(0.499998 -1.15736e-07 -6.68556e-23)
(0.499994 -1.92997e-06 -5.87515e-24)
(0.499998 -1.79385e-06 3.41753e-23)
(0.499999 1.67385e-06 -2.69088e-22)
(0.499998 -1.63498e-06 -1.52356e-22)
(0.5 -2.23003e-07 -2.98338e-22)
(0.499999 -3.26338e-07 -1.41774e-22)
(0.5 -6.87575e-07 -8.87177e-23)
(0.499999 1.36947e-06 -3.54199e-24)
(0.499998 -1.99617e-09 -1.85493e-22)
(0.5 8.5036e-08 -7.68271e-23)
(0.5 -1.73379e-06 6.77745e-24)
(0.500001 -4.87782e-07 2.01064e-24)
(0.5 -9.2052e-07 0)
(0.5 3.60224e-09 -2.05081e-23)
(0.5 8.25334e-08 3.12148e-22)
(0.5 -1.12952e-06 -1.26071e-22)
(0.499999 2.43865e-08 -1.10867e-22)
(0.5 1.79284e-07 0)
(0.5 -1.02962e-07 0)
(0.499998 1.48491e-07 7.55133e-23)
(0.500001 2.25176e-06 -2.59418e-22)
(0.499999 -3.27858e-07 8.26577e-23)
(0.499997 1.86524e-06 0)
(0.499998 1.59019e-06 7.48102e-23)
(0.499999 -1.60657e-08 -6.42985e-23)
(0.5 -1.36843e-07 6.37373e-23)
(0.5 -4.10934e-07 2.12208e-22)
(0.499999 9.54754e-07 -1.91385e-22)
(0.499999 4.82781e-07 1.33882e-22)
(0.5 -3.24606e-08 -3.10275e-22)
(0.5 4.7093e-08 0)
(0.5 6.30182e-07 2.17974e-22)
(0.5 -1.71566e-06 2.64712e-22)
(0.5 -1.30375e-06 0)
(0.499999 -1.5053e-06 -1.8499e-23)
(0.499999 -6.79579e-07 5.81834e-23)
(0.5 1.55294e-08 0)
(0.499999 4.64287e-07 -5.32493e-23)
(0.5 -1.7456e-08 0)
(0.499992 -2.76379e-06 5.26436e-24)
(0.499999 4.91151e-07 0)
(0.499999 8.87033e-07 0)
(0.499998 -6.62958e-07 0)
(0.499999 -5.9964e-07 5.91607e-22)
(0.5 -4.08143e-07 -3.85093e-23)
(0.5 -4.1382e-07 0)
(0.5 -1.00501e-07 0)
(0.499994 -1.86258e-06 -1.369e-22)
(0.499999 4.31674e-07 -1.4988e-22)
(0.499999 -9.20399e-09 -1.16009e-22)
(0.499999 -3.27707e-07 0)
(0.5 -5.3917e-07 1.41922e-22)
(0.499997 -1.95265e-06 1.77427e-23)
(0.499998 -9.30264e-07 -2.50943e-22)
(0.5 -7.54255e-07 -3.30404e-23)
(0.5 4.20893e-08 -2.99909e-22)
(0.499999 -2.7809e-07 -1.6166e-22)
(0.499998 2.07636e-06 0)
(0.5 -8.68309e-08 -1.33598e-22)
(0.499999 -8.45289e-08 -5.05875e-23)
(0.5 1.88978e-06 -1.32636e-22)
(0.499999 -1.1212e-06 0)
(0.5 6.46992e-07 6.67916e-23)
(0.499997 -8.80492e-07 2.15266e-22)
(0.499999 5.14824e-07 0)
(0.5 -4.11246e-07 1.4287e-22)
(0.500002 9.94482e-07 -3.56736e-22)
(0.5 2.13732e-08 0)
(0.499994 2.25288e-06 0)
(0.5 2.05712e-08 0)
(0.500001 -1.21017e-06 0)
(0.5 -1.6854e-07 -1.55776e-22)
(0.5 -2.64312e-08 2.84572e-22)
(0.500001 -1.01496e-06 -2.85607e-22)
(0.500001 9.21588e-07 -8.96175e-23)
(0.5 -4.38728e-08 -8.13177e-23)
(0.5 2.60794e-06 -4.12664e-23)
(0.499998 7.14662e-07 -2.55236e-22)
(0.5 -8.43618e-08 0)
(0.5 -2.75529e-07 0)
(0.5 -2.4354e-07 0)
(0.5 2.61425e-07 -3.93913e-22)
(0.5 3.23034e-09 1.46753e-22)
(0.5 1.52061e-08 -3.49693e-23)
(0.500003 2.73399e-06 -2.80678e-24)
(0.5 -1.85611e-07 -2.43873e-22)
(0.5 2.45868e-07 0)
(0.5 9.77542e-08 -3.41789e-22)
(0.499998 -6.23958e-07 1.08534e-22)
(0.500001 8.87644e-07 5.38022e-23)
(0.5 -6.01315e-08 -2.86071e-25)
(0.499999 -2.82881e-09 0)
(0.5 3.58426e-07 2.38029e-22)
(0.499998 5.23578e-06 0)
(0.5 7.56919e-08 3.08967e-22)
(0.499999 9.24762e-08 0)
(0.499998 -7.96477e-08 5.7843e-23)
(0.499996 -1.99665e-06 -1.0631e-22)
(0.5 -3.08261e-07 8.26846e-23)
(0.499999 2.38775e-06 2.04234e-23)
(0.5 -3.47435e-07 -8.17556e-23)
(0.5 -3.93244e-07 3.0591e-22)
(0.5 -7.88524e-09 0)
(0.5 -2.20533e-07 2.86702e-22)
(0.499999 6.51391e-07 0)
(0.5 -1.77801e-07 0)
(0.500001 -7.28173e-07 2.59099e-23)
(0.499998 -3.80248e-06 7.52029e-23)
(0.5 4.91201e-07 3.65007e-22)
(0.499997 5.05144e-07 -2.5663e-22)
(0.499998 3.72441e-07 0)
(0.499991 4.95182e-06 -2.87408e-23)
(0.5 1.62435e-07 0)
(0.499999 6.1682e-07 -1.2038e-22)
(0.5 -2.4699e-08 1.50227e-22)
(0.500003 -1.54281e-06 -1.1925e-22)
(0.5 -1.51834e-07 0)
(0.500003 -1.56221e-06 -9.58578e-23)
(0.499997 9.69784e-07 1.95233e-22)
(0.499997 1.24239e-06 6.1954e-24)
(0.5 -5.76105e-07 0)
(0.5 4.05221e-07 2.3261e-22)
(0.5 -8.90483e-08 0)
(0.5 -5.17339e-08 -1.60028e-22)
(0.5 -1.11894e-07 -7.91215e-23)
(0.499995 8.60699e-08 0)
(0.499997 -1.15169e-06 8.19981e-23)
(0.499999 -4.27415e-07 3.50283e-23)
(0.5 2.59543e-07 0)
(0.5 -4.19099e-07 0)
(0.5 8.77753e-07 3.03278e-22)
(0.499996 -1.07801e-06 -1.03995e-22)
(0.499997 3.36736e-07 -1.02062e-22)
(0.500002 6.49603e-07 0)
(0.499999 -8.15668e-08 0)
(0.499998 1.99128e-06 -2.627e-22)
(0.499998 -5.05698e-07 -2.4538e-22)
(0.499999 -2.57887e-07 1.45339e-24)
(0.5 4.13365e-07 -1.77806e-22)
(0.5 3.65225e-08 0)
(0.500001 -7.02414e-07 1.44422e-22)
(0.500001 4.68693e-06 8.65294e-23)
(0.5 -1.739e-07 2.85257e-22)
(0.499999 -5.7004e-08 0)
(0.499999 -6.25881e-07 7.33482e-23)
(0.5 -2.30042e-06 -4.59872e-23)
(0.499999 1.03684e-06 1.00267e-22)
(0.499999 -2.62749e-07 0)
(0.5 -2.61739e-07 -1.34328e-22)
(0.5 7.84968e-07 0)
(0.5 -1.09959e-07 0)
(0.499998 -8.53412e-07 1.2014e-22)
(0.5 -3.07724e-07 -1.16781e-22)
(0.5 3.97759e-07 2.32962e-22)
(0.499998 3.51685e-07 -1.57469e-22)
(0.5 5.07046e-07 -1.37331e-22)
(0.499995 9.54404e-07 1.36692e-23)
(0.499998 -1.64024e-07 1.369e-22)
(0.499999 -6.36845e-07 -1.43417e-22)
(0.500001 2.59968e-06 1.52788e-22)
(0.499998 -4.67777e-07 0)
(0.499999 -5.73303e-07 0)
(0.499999 -1.6783e-09 0)
(0.499999 7.12238e-08 1.49687e-22)
(0.5 -9.22197e-08 1.68496e-22)
(0.499996 4.88411e-07 5.15459e-23)
(0.5 3.7145e-08 3.04153e-22)
(0.5 3.0151e-07 5.58889e-23)
(0.499997 -9.14337e-07 -1.16323e-22)
(0.5 -7.09239e-09 2.79383e-22)
(0.499997 -1.69078e-06 -1.74992e-22)
(0.5 -3.71441e-07 2.92241e-22)
(0.5 -2.66971e-07 7.61353e-23)
(0.499999 -6.46266e-07 -1.48069e-22)
(0.499999 -3.90048e-07 0)
(0.499999 -3.15088e-07 2.28591e-22)
(0.499999 -6.49229e-07 8.20662e-23)
(0.5 5.74808e-08 5.05272e-24)
(0.5 -7.26008e-09 -7.8053e-23)
(0.5 4.75943e-07 -7.12597e-23)
(0.499999 1.60612e-07 3.77169e-22)
(0.5 -2.51144e-07 -3.83875e-22)
(0.499996 -6.32099e-07 1.75891e-22)
(0.5 -4.51878e-07 0)
(0.499999 -4.80024e-07 3.66054e-22)
(0.499999 -5.31914e-07 1.30172e-22)
(0.5 5.84902e-08 -2.89151e-22)
(0.499999 4.76541e-07 -2.87551e-22)
(0.499999 -6.7092e-07 1.21053e-22)
(0.499997 2.46876e-06 -4.17105e-23)
(0.499997 2.72078e-06 -1.46822e-22)
(0.499999 -1.19584e-08 0)
(0.499999 6.38701e-07 3.24309e-23)
(0.499997 -2.46246e-06 -1.54218e-22)
(0.499997 -9.67792e-07 1.74618e-22)
(0.5 -6.26414e-07 1.32363e-22)
(0.5 3.24619e-09 -2.85501e-22)
(0.5 -9.8332e-09 3.12829e-22)
(0.5 4.52494e-07 0)
(0.499999 1.5849e-07 -1.41371e-22)
(0.500001 2.65122e-07 1.72118e-22)
(0.499999 1.73229e-06 -1.02091e-22)
(0.499999 4.06072e-07 -2.62979e-22)
(0.499997 2.84572e-06 0)
(0.5 -5.96707e-08 -4.35369e-22)
(0.5 5.90485e-07 8.58507e-25)
(0.499999 9.28894e-07 1.4734e-22)
(0.499998 -9.60023e-07 7.18042e-23)
(0.5 9.32085e-08 0)
(0.5 -2.85224e-07 -2.87073e-22)
(0.5 -7.91234e-07 3.10534e-22)
(0.499997 -1.04145e-06 1.9816e-22)
(0.499999 -1.11465e-06 1.96054e-22)
(0.499999 -1.26456e-06 0)
(0.5 3.09367e-07 -2.61016e-22)
(0.500001 -7.42107e-07 2.57729e-22)
(0.5 -4.96983e-07 3.97425e-22)
(0.499999 1.54914e-06 1.61371e-22)
(0.499995 1.34941e-07 1.11657e-22)
(0.5 -8.13521e-08 0)
(0.5 -1.09502e-07 -2.08835e-22)
(0.5 1.7075e-07 -3.61404e-22)
(0.499999 4.61556e-08 -3.20213e-22)
(0.5 -1.16014e-07 0)
(0.5 -3.18529e-07 0)
(0.5 2.88126e-08 2.28679e-22)
(0.499997 2.5962e-06 -3.78843e-23)
(0.499997 3.34565e-07 -8.71163e-25)
(0.499995 9.84546e-07 4.0041e-23)
(0.499998 5.28167e-07 3.25046e-22)
(0.5 -2.74147e-07 1.56377e-22)
(0.5 -9.13852e-08 0)
(0.5 -1.71536e-07 3.31251e-22)
(0.499999 -2.06781e-07 7.81294e-23)
(0.5 -4.87156e-07 -1.37003e-22)
(0.499996 -6.67788e-07 1.3092e-22)
(0.499997 -1.30404e-06 -1.01e-22)
(0.500001 3.03167e-06 -1.83737e-23)
(0.499998 2.50072e-06 1.82049e-22)
(0.500001 -3.60876e-07 -1.25347e-22)
(0.499999 -3.70346e-07 -5.66632e-23)
(0.5 5.88603e-07 -6.86751e-23)
(0.5 1.55287e-07 3.07231e-22)
(0.499995 2.57256e-06 0)
(0.499999 4.11826e-07 0)
(0.5 -2.21249e-07 1.60241e-22)
(0.499996 4.8364e-06 -1.30401e-22)
(0.499998 3.38584e-06 1.99137e-22)
(0.5 -1.02033e-07 2.98522e-22)
(0.499999 -4.0716e-07 3.19433e-22)
(0.500003 -1.56734e-06 0)
(0.5 4.2615e-07 1.77422e-23)
(0.5 -1.59612e-07 -8.14783e-23)
(0.5 -4.83267e-08 0)
(0.499999 5.07391e-07 0)
(0.5 1.21367e-06 -3.08169e-23)
(0.499999 2.48083e-07 0)
(0.5 2.36907e-06 -1.65076e-22)
(0.499999 -1.04935e-08 8.69917e-23)
(0.499999 -2.64465e-07 3.56557e-23)
(0.5 -1.16281e-07 -1.24164e-22)
(0.5 -1.36495e-07 9.02604e-25)
(0.5 2.61652e-08 -1.55689e-22)
(0.499999 -3.74506e-06 0)
(0.5 -9.37801e-07 2.64553e-22)
(0.5 4.6834e-07 -2.82915e-22)
(0.5 -4.54989e-08 2.45007e-25)
(0.499999 -4.81228e-07 2.6525e-23)
(0.499998 9.81407e-10 0)
(0.499999 -1.62948e-07 8.17186e-23)
(0.499999 1.74396e-06 1.01768e-22)
(0.499999 -1.15688e-06 -2.93265e-23)
(0.5 -2.9467e-07 1.63659e-22)
(0.5 -2.51194e-07 -4.63169e-22)
(0.499998 5.12198e-07 -9.23918e-23)
(0.5 -1.66131e-07 7.55192e-23)
(0.5 -2.29424e-08 0)
(0.499999 -3.70623e-07 1.24091e-22)
(0.5 -1.81969e-07 -1.63221e-22)
(0.5 -1.18481e-07 -1.05917e-22)
(0.499991 1.03846e-06 7.07895e-24)
(0.500004 -8.41896e-07 4.62893e-23)
(0.5 -4.36425e-07 4.55058e-22)
(0.500001 -1.5823e-07 0)
(0.499997 1.72748e-06 6.76542e-23)
(0.499999 1.68201e-07 -1.34121e-22)
(0.5 -1.86348e-07 -2.80078e-22)
(0.5 5.66344e-07 -2.67503e-22)
(0.5 -4.34745e-07 -2.89238e-22)
(0.5 -5.88346e-07 1.44479e-22)
(0.5 8.29657e-08 0)
(0.499999 -8.9114e-08 1.23644e-22)
(0.5 -3.7736e-08 0)
(0.499999 7.06751e-07 0)
(0.5 3.4986e-08 0)
(0.5 4.5862e-08 2.42759e-22)
(0.5 3.15048e-07 -1.72331e-23)
(0.499997 1.33612e-06 -4.94596e-23)
(0.5 -5.00959e-08 6.43411e-23)
(0.5 2.78275e-07 7.91134e-23)
(0.499998 -3.15841e-06 -1.28805e-22)
(0.5 -3.42082e-09 -3.06243e-22)
(0.499999 6.25477e-07 -1.79262e-22)
(0.5 8.27776e-08 -1.63412e-22)
(0.5 -2.6258e-08 0)
(0.5 -1.05555e-06 -1.63351e-22)
(0.5 -2.12689e-07 -3.35455e-22)
(0.500001 -4.11022e-08 0)
(0.499997 -1.6097e-07 0)
(0.499999 3.74228e-07 0)
(0.5 1.52679e-06 -3.77743e-23)
(0.5 1.05892e-07 3.13401e-22)
(0.499999 2.32768e-07 -2.9362e-22)
(0.5 7.84246e-08 4.09737e-22)
(0.499999 1.88866e-07 0)
(0.499998 3.1025e-07 1.77413e-22)
(0.5 -1.15839e-08 3.2062e-22)
(0.5 -1.07903e-07 -2.64508e-22)
(0.499999 -8.61492e-07 0)
(0.499998 1.19378e-07 0)
(0.500001 -5.16632e-08 -1.37689e-22)
(0.499999 1.88455e-06 -8.21747e-23)
(0.5 3.249e-08 3.78959e-23)
(0.5 -1.09938e-07 0)
(0.499999 2.20654e-07 -4.74754e-22)
(0.499999 -3.8832e-07 -3.16928e-22)
(0.500001 2.11251e-06 4.79357e-23)
(0.5 7.4492e-08 0)
(0.499999 -3.42047e-07 0)
(0.499999 -2.02955e-07 1.44654e-22)
(0.499999 -2.46146e-07 5.24253e-23)
(0.499998 6.46108e-07 0)
(0.5 -2.54587e-07 1.61319e-22)
(0.5 2.15342e-07 -7.13116e-23)
(0.499999 -1.80995e-07 0)
(0.499999 -1.9886e-07 -1.54823e-22)
(0.499995 -1.47108e-06 1.54041e-22)
(0.499996 1.33282e-06 -1.76033e-22)
(0.5 1.72425e-07 0)
(0.5 2.90328e-07 -3.38323e-22)
(0.5 1.00398e-07 0)
(0.499999 -1.80012e-06 9.58633e-24)
(0.499996 -6.63576e-07 0)
(0.5 2.04437e-06 1.20531e-23)
(0.5 -6.42948e-08 2.95017e-22)
(0.5 7.05761e-07 -2.56973e-22)
(0.5 -2.06487e-07 0)
(0.5 -1.79994e-07 5.86234e-23)
(0.499998 4.1934e-06 0)
(0.499997 9.22292e-07 1.19604e-22)
(0.499999 -8.70173e-07 -1.56207e-22)
(0.5 -1.78862e-07 3.2941e-22)
(0.5 -6.03303e-07 2.77394e-22)
(0.499998 -8.46608e-07 1.36695e-22)
(0.499999 5.62453e-07 -1.28024e-22)
(0.499999 4.00362e-07 2.25858e-22)
(0.499998 -1.06569e-06 6.60673e-23)
(0.499999 2.63918e-07 1.96278e-22)
(0.499999 -7.06802e-08 -3.18441e-22)
(0.5 8.49014e-09 0)
(0.499998 -4.11058e-07 2.84547e-22)
(0.499998 -7.10849e-07 3.57667e-22)
(0.499997 -5.0931e-08 -1.20567e-22)
(0.5 1.08517e-07 1.5515e-22)
(0.5 -1.82062e-07 1.19553e-22)
(0.499999 -1.11575e-06 0)
(0.5 -4.75482e-08 0)
(0.500001 -9.79391e-07 2.16838e-22)
(0.5 -9.77567e-07 -1.27865e-22)
(0.500001 -6.15693e-07 1.33837e-22)
(0.5 2.06336e-07 -6.76594e-23)
(0.499997 3.92634e-08 -2.75154e-22)
(0.5 4.73849e-08 2.7321e-22)
(0.499994 -1.2324e-06 0)
(0.499999 -2.34831e-07 0)
(0.5 -1.23728e-07 -8.74169e-24)
(0.500004 -5.62284e-07 -2.31679e-24)
(0.5 -6.84722e-08 -1.03067e-23)
(0.5 1.41662e-06 0)
(0.5 2.51033e-07 -2.50037e-25)
(0.5 1.5101e-08 0)
(0.499997 -3.16007e-08 -5.9638e-23)
(0.5 -1.29621e-07 3.28183e-22)
(0.5 -2.12847e-09 -1.19492e-22)
(0.499994 -1.09647e-06 1.642e-22)
(0.499999 -4.80428e-08 0)
(0.5 -5.021e-08 -3.89874e-23)
(0.5 1.86788e-07 -8.23963e-23)
(0.500002 -7.99816e-07 2.44329e-22)
(0.499999 6.65084e-08 -7.00227e-23)
(0.5 1.09184e-08 8.79996e-23)
(0.5 -1.38356e-07 2.63966e-22)
(0.499993 -1.72831e-06 -2.4674e-23)
(0.499997 -9.50628e-07 5.92003e-23)
(0.5 -7.6414e-08 -7.23638e-23)
(0.5 1.14217e-07 6.45838e-23)
(0.5 3.12079e-08 7.84969e-23)
(0.5 5.84149e-08 2.83348e-22)
(0.499998 -1.09376e-06 -1.56011e-22)
(0.5 -1.18081e-07 -2.37054e-22)
(0.5 -1.40898e-09 3.37952e-22)
(0.5 8.11113e-08 -4.33469e-22)
(0.5 1.40123e-07 6.06283e-23)
(0.499996 1.33066e-06 1.01887e-22)
(0.5 -2.28086e-07 2.89351e-22)
(0.499995 -1.02478e-06 2.70327e-22)
(0.499998 -1.26901e-06 1.36271e-24)
(0.499994 2.56449e-06 0)
(0.5 5.84217e-09 3.1531e-22)
(0.499999 7.59975e-07 -1.56937e-22)
(0.499999 2.04249e-07 6.6386e-23)
(0.5 -5.01277e-07 -9.84697e-23)
(0.499998 1.02557e-06 2.71813e-22)
(0.499999 1.45155e-06 8.8111e-23)
(0.499999 -2.26068e-07 -3.30258e-22)
(0.500001 -4.94742e-07 0)
(0.500001 -5.27037e-08 9.58348e-23)
(0.499999 1.86928e-06 -7.09251e-23)
(0.5 8.1546e-08 0)
(0.5 5.2984e-07 -4.89393e-22)
(0.5 -2.55711e-09 1.41755e-22)
(0.499997 3.26562e-07 -8.12079e-23)
(0.499996 1.55564e-06 9.96405e-23)
(0.5 -7.19582e-08 1.20831e-22)
(0.500001 -1.82188e-06 0)
(0.5 -2.21488e-07 3.14113e-22)
(0.499999 1.24804e-06 1.28596e-23)
(0.5 -2.87023e-07 -3.31145e-22)
(0.499999 -3.84192e-07 -2.52979e-22)
(0.5 -9.01766e-08 -4.01652e-23)
(0.5 1.93241e-07 1.44192e-22)
(0.499999 -1.15898e-06 6.45522e-23)
(0.499999 -3.20345e-07 0)
(0.5 -6.48991e-07 0)
(0.500004 3.84845e-07 -1.8465e-24)
(0.499998 -1.48967e-06 -1.65333e-22)
(0.499998 2.29245e-06 9.55821e-23)
(0.499994 -1.56472e-06 2.07235e-22)
(0.499997 -1.05074e-06 0)
(0.5 8.32842e-07 4.6281e-24)
(0.5 3.1992e-07 -2.64872e-22)
(0.499998 1.39358e-07 1.23803e-22)
(0.499997 -6.61771e-07 0)
(0.5 -1.13284e-07 0)
(0.499999 -6.43683e-07 -2.22654e-22)
(0.5 6.11248e-08 -6.50113e-23)
(0.500001 1.97657e-08 6.58433e-23)
(0.5 9.50163e-08 -7.77255e-23)
(0.499996 2.46078e-07 -7.97012e-23)
(0.500004 2.03133e-06 0)
(0.5 4.49058e-07 0)
(0.5 -9.57153e-07 1.97452e-22)
(0.5 1.81159e-08 6.11616e-22)
(0.5 -1.85131e-07 -2.63685e-22)
(0.499999 3.05022e-07 -1.55757e-22)
(0.5 2.77796e-07 -3.56236e-23)
(0.500002 -2.5743e-07 1.45908e-22)
(0.5 -1.70168e-06 -2.69004e-22)
(0.499992 2.0874e-06 -5.22384e-23)
(0.499993 1.21764e-06 5.34985e-23)
(0.499997 3.3311e-08 1.79268e-22)
(0.5 1.26363e-06 0)
(0.5 -6.6392e-08 6.55918e-22)
(0.499997 1.52142e-06 8.75455e-23)
(0.500001 -4.40037e-07 -2.59522e-22)
(0.5 1.04569e-07 0)
(0.499999 1.58139e-07 6.93601e-23)
(0.499999 1.53226e-07 0)
(0.499998 1.31895e-06 1.4648e-22)
(0.499998 -1.78237e-06 8.07944e-23)
(0.499999 -1.89577e-07 1.43296e-22)
(0.499999 -6.32756e-08 0)
(0.5 3.79895e-08 0)
(0.5 4.89647e-07 0)
(0.500002 6.57019e-07 1.75647e-22)
(0.5 -3.6199e-07 3.07137e-22)
(0.5 -4.42331e-07 -1.85722e-22)
(0.499998 2.15235e-06 -2.02088e-22)
(0.499993 1.11464e-06 0)
(0.5 -2.06571e-07 8.59548e-23)
(0.5 -2.1775e-07 -1.56608e-22)
(0.500002 3.54166e-07 0)
(0.499999 -2.85045e-07 0)
(0.499998 -1.51752e-08 5.24317e-23)
(0.5 -2.2735e-07 1.59703e-22)
(0.499999 -3.13177e-06 0)
(0.499998 1.94287e-06 -1.20506e-22)
(0.5 3.98708e-09 -1.48514e-22)
(0.5 1.89217e-06 7.55996e-24)
(0.499997 4.48598e-07 -1.41845e-22)
(0.499999 -2.54374e-08 -1.39836e-22)
(0.5 -1.40625e-07 8.91666e-23)
(0.5 -2.35817e-07 -1.87116e-23)
(0.5 -1.43913e-07 -1.6252e-22)
(0.499999 -8.06394e-07 -1.23482e-22)
(0.5 -3.35536e-07 0)
(0.500001 -9.62081e-07 -3.0172e-23)
(0.5 -2.83449e-07 0)
(0.5 9.70405e-09 1.77899e-22)
(0.500002 -1.38064e-06 0)
(0.5 -1.4696e-07 -1.46816e-22)
(0.499998 -2.95723e-07 -5.47012e-23)
(0.5 2.68625e-07 3.37238e-22)
(0.5 1.40278e-07 3.0845e-22)
(0.499996 5.99552e-07 4.66185e-23)
(0.500001 2.34908e-07 -1.0791e-22)
(0.5 -9.28754e-07 0)
(0.5 -1.78362e-07 -8.31543e-23)
(0.5 -9.11527e-08 4.97592e-24)
(0.5 2.77851e-09 0)
(0.5 -1.11073e-07 3.98847e-22)
(0.499999 -5.48482e-07 -4.25341e-22)
(0.5 1.0272e-06 -4.55902e-24)
(0.500001 -3.18176e-06 -1.67656e-23)
(0.5 -2.45528e-08 3.78537e-23)
(0.5 -7.02393e-07 0)
(0.499996 8.16165e-08 0)
(0.5 1.14305e-07 3.07093e-22)
(0.5 4.10411e-07 2.04396e-22)
(0.499999 -9.94039e-09 0)
(0.499995 4.20423e-06 0)
(0.5 -2.1238e-07 -1.49901e-22)
(0.499999 -1.75665e-07 0)
(0.5 -5.54146e-07 0)
(0.500003 2.14625e-06 -1.33599e-22)
(0.5 -3.13932e-07 2.76134e-22)
(0.5 1.17351e-08 0)
(0.500001 7.70915e-07 0)
(0.499997 -1.27247e-06 -1.06566e-22)
(0.499997 1.53463e-06 -5.25171e-25)
(0.499999 -7.78824e-08 -3.00865e-22)
(0.499993 1.1689e-06 3.87894e-23)
(0.499999 -3.10571e-07 -6.80549e-23)
(0.5 3.1216e-06 -7.1201e-23)
(0.499999 -4.86437e-07 1.8434e-24)
(0.499999 -1.0318e-06 -1.16179e-22)
(0.5 -2.64225e-07 2.81348e-22)
(0.500003 8.84922e-07 -6.93895e-24)
(0.499998 1.39824e-06 -5.03922e-23)
(0.499997 -4.33002e-10 0)
(0.499998 6.98955e-07 -7.69422e-23)
(0.499999 -1.13149e-07 -7.43085e-23)
(0.499999 8.50938e-08 3.81466e-22)
(0.499998 2.90322e-06 -2.28638e-23)
(0.5 4.63645e-07 0)
(0.5 -2.86092e-07 0)
(0.500004 5.77682e-07 -3.68731e-25)
(0.5 5.6282e-08 -5.25533e-24)
(0.5 -4.16046e-07 2.06698e-22)
(0.499999 -6.39563e-08 1.02919e-22)
(0.5 2.33691e-07 1.39301e-22)
(0.5 7.63554e-08 3.66954e-23)
(0.5 -3.31555e-07 -3.92151e-25)
(0.5 4.06446e-08 0)
(0.5 1.88769e-07 7.38682e-23)
(0.499999 8.11652e-07 0)
(0.499999 6.7392e-07 1.54297e-22)
(0.499998 -3.14693e-08 2.98162e-22)
(0.5 1.11827e-07 3.14603e-22)
(0.499999 -1.21845e-06 1.21693e-22)
(0.499998 -1.96013e-06 -2.19358e-22)
(0.5 6.73221e-07 -2.77231e-22)
(0.499999 -1.05575e-06 6.87542e-23)
(0.499999 -6.16349e-07 -1.33959e-22)
(0.5 5.92972e-07 -2.38527e-22)
(0.5 2.5013e-07 -2.27594e-22)
(0.500001 2.87321e-08 0)